 running on   32 total cores
 distrk:  each k-point on   32 cores,    1 groups
 distr:  one band on    8 cores,    4 groups
 using from now: INCAR     
 vasp.5.4.1 05Feb16 (build Dec 31 2016 05:41:53) complex                        
  
 POSCAR found type information on POSCAR  O  Sn
 POSCAR found :  2 types and      47 ions
 scaLAPACK will be used

 ----------------------------------------------------------------------------- 
|                                                                             |
|  ADVICE TO THIS USER RUNNING 'VASP/VAMP'   (HEAR YOUR MASTER'S VOICE ...):  |
|                                                                             |
|      You have a (more or less) 'large supercell' and for larger cells       |
|      it might be more efficient to use real space projection opertators     |
|      So try LREAL= Auto  in the INCAR   file.                               |
|      Mind: At the moment your POTCAR file does not contain real space       |
|       projectors, and has to be modified,  BUT if you                       |
|      want to do an extremely  accurate calculation you might also keep the  |
|      reciprocal projection scheme          (i.e. LREAL=.FALSE.)             |
|                                                                             |
 ----------------------------------------------------------------------------- 

 LDA part: xc-table for Pade appr. of Perdew
 found WAVECAR, reading the header
 POSCAR, INCAR and KPOINTS ok, starting setup
 WARNING: small aliasing (wrap around) errors must be expected
 FFT: planning ...
 reading WAVECAR
 the WAVECAR file was read successfully
 entering main loop
       N       E                     dE             d eps       ncg     rms          rms(c)
RMM:   1    -0.348813102350E+03   -0.34881E+03   -0.29493E+02  1952   0.259E+01
RMM:   2    -0.603115806700E+03   -0.25430E+03   -0.30705E+03  1952   0.599E+01
RMM:   3    -0.610006435132E+03   -0.68906E+01   -0.98094E+03  1952   0.117E+02
RMM:   4    -0.211347258957E+03    0.39866E+03   -0.81856E+03  4819   0.178E+02
RMM:   5    -0.303470986889E+03   -0.92124E+02   -0.76015E+02  4992   0.305E+01    0.392E+01
RMM:   6    -0.291136298601E+03    0.12335E+02   -0.26887E+02  4698   0.253E+01    0.171E+01
RMM:   7    -0.295678935801E+03   -0.45426E+01   -0.56897E+01  4765   0.909E+00    0.958E+00
RMM:   8    -0.296589330116E+03   -0.91039E+00   -0.11667E+01  4721   0.451E+00    0.551E+00
RMM:   9    -0.297439794964E+03   -0.85046E+00   -0.85389E+00  4802   0.239E+00    0.752E+00
RMM:  10    -0.297457134200E+03   -0.17339E-01   -0.44482E+00  4716   0.197E+00    0.330E+00
RMM:  11    -0.297402978444E+03    0.54156E-01   -0.33718E+00  4740   0.104E+00    0.271E+00
RMM:  12    -0.297749594712E+03   -0.34662E+00   -0.10202E+00  4727   0.649E-01    0.158E+00
RMM:  13    -0.297835851449E+03   -0.86257E-01   -0.11523E+00  4441   0.379E-01    0.628E-01
RMM:  14    -0.297792471522E+03    0.43380E-01   -0.55065E-01  4410   0.248E-01    0.620E-01
RMM:  15    -0.297802065580E+03   -0.95941E-02   -0.84548E-02  4400   0.243E-01    0.613E-01
RMM:  16    -0.297799485379E+03    0.25802E-02   -0.15309E-02  4440   0.130E-01    0.283E-01
RMM:  17    -0.297799177811E+03    0.30757E-03   -0.22160E-03  3982   0.728E-02    0.164E-01
RMM:  18    -0.297799220335E+03   -0.42524E-04   -0.51840E-04  3331   0.377E-02
   1 F= -.29779922E+03 E0= -.29773026E+03  d E =-.297799E+03
 BRION: g(F)=  0.149E-02 g(S)=  0.000E+00
 bond charge predicted
       N       E                     dE             d eps       ncg     rms          rms(c)
RMM:   1    -0.297824130867E+03   -0.24953E-01   -0.64596E-01  3928   0.128E+00    0.489E-01
RMM:   2    -0.297846744719E+03   -0.22614E-01   -0.63716E-02  4575   0.634E-01    0.258E+00
RMM:   3    -0.297796991261E+03    0.49753E-01   -0.15134E-02  4558   0.219E-01    0.161E-01
RMM:   4    -0.297799091931E+03   -0.21007E-02   -0.10268E-03  3659   0.730E-02    0.702E-02
RMM:   5    -0.297799214035E+03   -0.12210E-03   -0.17114E-04  2594   0.312E-02    0.385E-02
RMM:   6    -0.297799220861E+03   -0.68265E-05   -0.83279E-05  2357   0.203E-02
   2 F= -.29779922E+03 E0= -.29773099E+03  d E =-.526037E-06
 BRION: g(F)=  0.279E-02 g(S)=  0.000E+00 retain N=  1 mean eig= 0.36
 eig:   0.361
 bond charge predicted
       N       E                     dE             d eps       ncg     rms          rms(c)
RMM:   1    -0.297801161615E+03   -0.19476E-02   -0.11637E-01  4311   0.624E-01    0.258E-01
RMM:   2    -0.297815008226E+03   -0.13847E-01   -0.12628E-02  4480   0.236E-01    0.183E+00
RMM:   3    -0.297798353864E+03    0.16654E-01   -0.50090E-03  4387   0.136E-01    0.929E-02
RMM:   4    -0.297799856109E+03   -0.15022E-02   -0.40834E-04  3182   0.589E-02    0.493E-02
RMM:   5    -0.297799886849E+03   -0.30740E-04   -0.48040E-05  2330   0.216E-02
   3 F= -.29779989E+03 E0= -.29773176E+03  d E =-.665988E-03
 BRION: g(F)=  0.622E-03 g(S)=  0.000E+00 retain N=  1 mean eig= 0.45
 eig:   0.453
 reached required accuracy - stopping structural energy minimisation
 writing wavefunctions
