 vasp.5.4.1 05Feb16 (build Dec 31 2016 05:41:53) complex                        
  
 executed on           IFC91_ompi date 2017.08.16  01:42:15
 running on   32 total cores
 distrk:  each k-point on   32 cores,    1 groups
 distr:  one band on NCORES_PER_BAND=   8 cores,    4 groups


--------------------------------------------------------------------------------------------------------


 INCAR:
 POTCAR:    PAW_PBE O 08Apr2002                   
 POTCAR:    PAW_PBE Sn_d 06Sep2000                
 POTCAR:    PAW_PBE O 08Apr2002                   
   VRHFIN =O: s2p4                                                              
   LEXCH  = PE                                                                  
   EATOM  =   432.3788 eV,   31.7789 Ry                                         
                                                                                
   TITEL  = PAW_PBE O 08Apr2002                                                 
   LULTRA =        F    use ultrasoft PP ?                                      
   IUNSCR =        1    unscreen: 0-lin 1-nonlin 2-no                           
   RPACOR =    1.200    partial core radius                                     
   POMASS =   16.000; ZVAL   =    6.000    mass and valenz                      
   RCORE  =    1.520    outmost cutoff radius                                   
   RWIGS  =    1.550; RWIGS  =    0.820    wigner-seitz radius (au A)           
   ENMAX  =  400.000; ENMIN  =  300.000 eV                                      
   ICORE  =        2    local potential                                         
   LCOR   =        T    correct aug charges                                     
   LPAW   =        T    paw PP                                                  
   EAUG   =  605.392                                                            
   DEXC   =    0.000                                                            
   RMAX   =    1.553    core radius for proj-oper                               
   RAUG   =    1.300    factor for augmentation sphere                          
   RDEP   =    1.550    radius for radial grids                                 
   RDEPT  =    1.329    core radius for aug-charge                              
                                                                                
   Atomic configuration                                                         
    4 entries                                                                   
     n  l   j            E        occ.                                          
     1  0  0.50      -514.6923   2.0000                                         
     2  0  0.50       -23.9615   2.0000                                         
     2  1  0.50        -9.0305   4.0000                                         
     3  2  1.50        -9.5241   0.0000                                         
   Description                                                                  
     l       E           TYP  RCUT    TYP  RCUT                                 
     0    -23.9615318     23  1.200                                             
     0     -9.5240782     23  1.200                                             
     1     -9.0304911     23  1.520                                             
     1      8.1634956     23  1.520                                             
     2     -9.5240782      7  1.500                                             
  local pseudopotential read in
  partial core-charges read in
  partial kinetic energy density read in
  kinetic energy density of atom read in
  atomic valenz-charges read in
  non local Contribution for L=           0  read in
    real space projection operators read in
  non local Contribution for L=           0  read in
    real space projection operators read in
  non local Contribution for L=           1  read in
    real space projection operators read in
  non local Contribution for L=           1  read in
    real space projection operators read in
    PAW grid and wavefunctions read in
 
   number of l-projection  operators is LMAX  =           4
   number of lm-projection operators is LMMAX =           8
 
 POTCAR:    PAW_PBE Sn_d 06Sep2000                
   VRHFIN =Sn: s2p2                                                             
   LEXCH  = PE                                                                  
   EATOM  =  1893.1092 eV,  139.1396 Ry                                         
                                                                                
   TITEL  = PAW_PBE Sn_d 06Sep2000                                              
   LULTRA =        F    use ultrasoft PP ?                                      
   IUNSCR =        1    unscreen: 0-lin 1-nonlin 2-no                           
   RPACOR =    2.300    partial core radius                                     
   POMASS =  118.710; ZVAL   =   14.000    mass and valenz                      
   RCORE  =    2.500    outmost cutoff radius                                   
   RWIGS  =    2.960; RWIGS  =    1.566    wigner-seitz radius (au A)           
   ENMAX  =  241.083; ENMIN  =  180.812 eV                                      
   ICORE  =        3    local potential                                         
   LCOR   =        T    correct aug charges                                     
   LPAW   =        T    paw PP                                                  
   EAUG   =  439.825                                                            
   DEXC   =    0.000                                                            
   RMAX   =    2.560    core radius for proj-oper                               
   RAUG   =    1.300    factor for augmentation sphere                          
   RDEP   =    2.659    radius for radial grids                                 
   RDEPT  =    2.046    core radius for aug-charge                              
                                                                                
   Atomic configuration                                                         
   12 entries                                                                   
     n  l   j            E        occ.                                          
     1  0  0.50    -29007.2859   2.0000                                         
     2  0  0.50     -4378.8056   2.0000                                         
     2  1  1.50     -3930.4293   6.0000                                         
     3  0  0.50      -845.0264   2.0000                                         
     3  1  1.50      -698.5725   6.0000                                         
     3  2  2.50      -473.2839  10.0000                                         
     4  0  0.50      -133.9036   2.0000                                         
     4  1  1.50       -89.6752   6.0000                                         
     4  2  2.50       -25.8375  10.0000                                         
     5  0  0.50       -10.5484   2.0000                                         
     5  1  0.50        -3.6940   2.0000                                         
     4  3  2.50        -2.7416   0.0000                                         
   Description                                                                  
     l       E           TYP  RCUT    TYP  RCUT                                 
     2    -25.8374624     23  2.500                                             
     2     -5.4423304     23  2.500                                             
     0    -10.5483727     23  2.500                                             
     0     13.6058260     23  2.500                                             
     1     -3.6939829     23  2.500                                             
     1      1.9821976     23  2.500                                             
     3     -1.3605826      7  2.500                                             
  local pseudopotential read in
  partial core-charges read in
  partial kinetic energy density read in
  atomic valenz-charges read in
  non local Contribution for L=           2  read in
    real space projection operators read in
  non local Contribution for L=           2  read in
    real space projection operators read in
  non local Contribution for L=           0  read in
    real space projection operators read in
  non local Contribution for L=           0  read in
    real space projection operators read in
  non local Contribution for L=           1  read in
    real space projection operators read in
  non local Contribution for L=           1  read in
    real space projection operators read in
    PAW grid and wavefunctions read in
 
   number of l-projection  operators is LMAX  =           6
   number of lm-projection operators is LMMAX =          18
 

 ----------------------------------------------------------------------------- 
|                                                                             |
|  ADVICE TO THIS USER RUNNING 'VASP/VAMP'   (HEAR YOUR MASTER'S VOICE ...):  |
|                                                                             |
|      You have a (more or less) 'large supercell' and for larger cells       |
|      it might be more efficient to use real space projection opertators     |
|      So try LREAL= Auto  in the INCAR   file.                               |
|      Mind: At the moment your POTCAR file does not contain real space       |
|       projectors, and has to be modified,  BUT if you                       |
|      want to do an extremely  accurate calculation you might also keep the  |
|      reciprocal projection scheme          (i.e. LREAL=.FALSE.)             |
|                                                                             |
 ----------------------------------------------------------------------------- 

  PAW_PBE O 08Apr2002                   :
 energy of atom  1       EATOM= -432.3788
 kinetic energy error for atom=    0.0258 (will be added to EATOM!!)
  PAW_PBE Sn_d 06Sep2000                :
 energy of atom  2       EATOM=-1893.1092
 kinetic energy error for atom=    0.0038 (will be added to EATOM!!)
 
 
 POSCAR: SnO2                                    
  positions in direct lattice
  velocities in cartesian coordinates
 exchange correlation table for  LEXCH =        8
   RHO(1)=    0.500       N(1)  =     2000
   RHO(2)=  100.500       N(2)  =     4000
 


--------------------------------------------------------------------------------------------------------


 ion  position               nearest neighbor table
   1  0.102  0.898  0.728-  40 1.98  36 1.98
   2  0.403  0.597  0.749-  40 2.04  33 2.04  47 2.04
   3  0.903  0.597  0.750-  43 2.04  38 2.04  34 2.04
   4  0.651  0.154  0.000-  46 2.04  45 2.04  41 2.04
   5  0.846  0.349  0.000-  43 2.04  41 2.04  45 2.04
   6  0.898  0.102  0.272-  45 1.98  36 1.98
   7  0.597  0.403  0.251-  45 2.04  33 2.04  47 2.04
   8  0.647  0.156  0.500-  42 2.02  41 2.05  45 2.05
   9  0.353  0.844  0.500-  42 2.02  40 2.05  44 2.05
  10  0.844  0.353  0.500-  38 2.02  41 2.05  45 2.05
  11  0.597  0.403  0.749-  41 2.04  33 2.04  47 2.04
  12  0.650  0.650  0.000-  47 2.01  37 2.06  34 2.06
  13  0.844  0.844  0.000-  34 2.00  37 2.00
  14  0.903  0.597  0.250-  43 2.04  38 2.04  37 2.04
  15  0.597  0.903  0.250-  46 2.04  42 2.04  37 2.04
  16  0.653  0.653  0.500-  33 2.04  34 2.06  37 2.06
  17  0.846  0.846  0.500-  34 2.03  37 2.03  36 2.05
  18  0.898  0.102  0.728-  41 1.98  36 1.98
  19  0.156  0.647  0.500-  38 2.02  40 2.05  44 2.05
  20  0.597  0.903  0.750-  46 2.04  42 2.04  34 2.04
  21  0.347  0.347  0.500-  33 2.04  35 2.06  39 2.06
  22  0.102  0.898  0.272-  44 1.98  36 1.98
  23  0.403  0.597  0.251-  44 2.04  33 2.04  47 2.04
  24  0.349  0.846  0.000-  46 2.04  44 2.04  40 2.04
  25  0.154  0.154  0.500-  35 2.03  39 2.03  36 2.05
  26  0.156  0.156  0.000-  35 2.00  39 2.00
  27  0.154  0.651  0.000-  43 2.04  40 2.04  44 2.04
  28  0.097  0.403  0.250-  43 2.04  38 2.04  35 2.04
  29  0.403  0.097  0.750-  46 2.04  42 2.04  39 2.04
  30  0.097  0.403  0.750-  43 2.04  38 2.04  39 2.04
  31  0.350  0.350  0.000-  47 2.01  39 2.06  35 2.06
  32  0.403  0.097  0.250-  46 2.04  42 2.04  35 2.04
  33  0.500  0.500  0.500-   2 2.04   7 2.04  11 2.04  23 2.04  21 2.04  16 2.04  47 3.15  47 3.15
                            44 3.69  45 3.69  40 3.69  41 3.69  37 3.71  39 3.71  34 3.71  35 3.71
  34  0.751  0.751  0.752-  13 2.00  17 2.03   3 2.04  20 2.04  16 2.06  12 2.06  37 3.13  37 3.18
                            36 3.68  46 3.68  43 3.68  42 3.69  38 3.69  47 3.70  33 3.71
  35  0.249  0.249  0.248-  26 2.00  25 2.03  28 2.04  32 2.04  21 2.06  31 2.06  39 3.13  39 3.18
                            36 3.68  43 3.68  46 3.68  38 3.69  42 3.69  47 3.70  33 3.71
  36  0.000  0.000  0.500-   1 1.98   6 1.98  18 1.98  22 1.98  17 2.05  25 2.05  34 3.68  35 3.68
                            37 3.68  39 3.68  40 3.69  41 3.69  44 3.69  45 3.69
  37  0.751  0.751  0.248-  13 2.00  17 2.03  15 2.04  14 2.04  16 2.06  12 2.06  34 3.13  34 3.18
                            36 3.68  43 3.68  46 3.68  38 3.69  42 3.69  47 3.70  33 3.71
  38  0.000  0.500  0.500-  10 2.02  19 2.02  14 2.04   3 2.04  28 2.04  30 2.04  43 3.15  43 3.15
                            40 3.69  44 3.69  45 3.69  41 3.69  37 3.69  39 3.69  34 3.69  35 3.69
  39  0.249  0.249  0.752-  26 2.00  25 2.03  29 2.04  30 2.04  21 2.06  31 2.06  35 3.13  35 3.18
                            36 3.68  46 3.68  43 3.68  42 3.69  38 3.69  47 3.70  33 3.71
  40  0.250  0.750  0.750-   1 1.98   2 2.04  24 2.04  27 2.04   9 2.05  19 2.05  44 3.15  44 3.16
                            46 3.69  43 3.69  47 3.69  36 3.69  42 3.69  38 3.69  33 3.69
  41  0.750  0.250  0.750-  18 1.98  11 2.04   4 2.04   5 2.04   8 2.05  10 2.05  45 3.15  45 3.16
                            46 3.69  43 3.69  47 3.69  36 3.69  42 3.69  38 3.69  33 3.69
  42  0.500  0.000  0.500-   8 2.02   9 2.02  15 2.04  20 2.04  29 2.04  32 2.04  46 3.15  46 3.15
                            44 3.69  45 3.69  40 3.69  41 3.69  37 3.69  39 3.69  34 3.69  35 3.69
  43  0.000  0.500  0.000-   5 2.04  27 2.04  14 2.04   3 2.04  28 2.04  30 2.04  38 3.15  38 3.15
                            37 3.68  34 3.68  39 3.68  35 3.68  41 3.69  44 3.69  45 3.69  40 3.69
  44  0.250  0.750  0.250-  22 1.98  23 2.04  24 2.04  27 2.04   9 2.05  19 2.05  40 3.15  40 3.16
                            43 3.69  46 3.69  47 3.69  36 3.69  42 3.69  38 3.69  33 3.69
  45  0.750  0.250  0.250-   6 1.98   7 2.04   4 2.04   5 2.04   8 2.05  10 2.05  41 3.15  41 3.16
                            43 3.69  46 3.69  47 3.69  36 3.69  42 3.69  38 3.69  33 3.69
  46  0.500  0.000  0.000-   4 2.04  24 2.04  20 2.04  15 2.04  29 2.04  32 2.04  42 3.15  42 3.15
                            37 3.68  39 3.68  34 3.68  35 3.68  40 3.69  44 3.69  45 3.69  41 3.69
  47  0.500  0.500  0.000-  12 2.01  31 2.01  11 2.04   2 2.04  23 2.04   7 2.04  33 3.15  33 3.15
                            41 3.69  44 3.69  45 3.69  40 3.69  35 3.70  37 3.70  39 3.70  34 3.70
 
  LATTYP: Found a simple tetragonal cell.
 ALAT       =     9.4320271667
 C/A-ratio  =     0.6685526591
  
  Lattice vectors:
  
 A1 = (   9.4320271667,   0.0000000000,   0.0000000000)
 A2 = (   0.0000000000,   9.4320271667,   0.0000000000)
 A3 = (   0.0000000000,   0.0000000000,   6.3058068432)


Analysis of symmetry for initial positions (statically):
=====================================================================
 Subroutine PRICEL returns:
 Original cell was already a primitive cell.
 

 Routine SETGRP: Setting up the symmetry group for a 
 simple tetragonal supercell.


 Subroutine GETGRP returns: Found  8 space group operations
 (whereof  8 operations were pure point group operations)
 out of a pool of 16 trial point group operations.


The static configuration has the point symmetry D_2h.


Analysis of symmetry for dynamics (positions and initial velocities):
=====================================================================
 Subroutine PRICEL returns:
 Original cell was already a primitive cell.
 

 Routine SETGRP: Setting up the symmetry group for a 
 simple tetragonal supercell.


 Subroutine GETGRP returns: Found  8 space group operations
 (whereof  8 operations were pure point group operations)
 out of a pool of 16 trial point group operations.


The dynamic configuration has the point symmetry D_2h.


Analysis of constrained symmetry for selective dynamics:
=====================================================================
 Subroutine PRICEL returns:
 Original cell was already a primitive cell.
 

 Routine SETGRP: Setting up the symmetry group for a 
 simple tetragonal supercell.


 Subroutine GETGRP returns: Found  8 space group operations
 (whereof  8 operations were pure point group operations)
 out of a pool of 16 trial point group operations.


The constrained configuration has the point symmetry D_2h.


 Subroutine INISYM returns: Found  8 space group operations
 (whereof  8 operations are pure point group operations),
 and found     1 'primitive' translations

 
 
 KPOINTS: Automatic mesh                          

Automatic generation of k-mesh.
Space group operators:
 irot       det(A)        alpha          n_x          n_y          n_z        tau_x        tau_y        tau_z
    1     1.000000     0.000000     1.000000     0.000000     0.000000     0.000000     0.000000     0.000000
    2    -1.000000     0.000000     1.000000     0.000000     0.000000     0.000000     0.000000     0.000000
    3     1.000000   180.000000     0.000000     0.000000     1.000000     0.000000     0.000000     0.000000
    4    -1.000000   180.000000     0.000000     0.000000     1.000000     0.000000     0.000000     0.000000
    5     1.000000   180.000000     0.707107     0.707107     0.000000     0.000000     0.000000     0.000000
    6    -1.000000   180.000000     0.707107     0.707107     0.000000     0.000000     0.000000     0.000000
    7     1.000000   180.000000     0.707107    -0.707107     0.000000     0.000000     0.000000     0.000000
    8    -1.000000   180.000000     0.707107    -0.707107     0.000000     0.000000     0.000000     0.000000
 
 Subroutine IBZKPT returns following result:
 ===========================================
 
 Found      8 irreducible k-points:
 
 Following reciprocal coordinates:
            Coordinates               Weight
  0.000000  0.000000  0.125000      2.000000
  0.333333  0.000000  0.125000      8.000000
  0.333333  0.333333  0.125000      4.000000
 -0.333333  0.333333  0.125000      4.000000
  0.000000  0.000000  0.375000      2.000000
  0.333333  0.000000  0.375000      8.000000
  0.333333  0.333333  0.375000      4.000000
 -0.333333  0.333333  0.375000      4.000000
 
 Following cartesian coordinates:
            Coordinates               Weight
  0.000000  0.000000  0.019823      2.000000
  0.035341  0.000000  0.019823      8.000000
  0.035341  0.035341  0.019823      4.000000
 -0.035341  0.035341  0.019823      4.000000
  0.000000  0.000000  0.059469      2.000000
  0.035341  0.000000  0.059469      8.000000
  0.035341  0.035341  0.059469      4.000000
 -0.035341  0.035341  0.059469      4.000000
 


--------------------------------------------------------------------------------------------------------




 Dimension of arrays:
   k-points           NKPTS =      8   k-points in BZ     NKDIM =      8   number of bands    NBANDS=    244
   number of dos      NEDOS =    301   number of ions     NIONS =     47
   non local maximal  LDIM  =      6   non local SUM 2l+1 LMDIM =     18
   total plane-waves  NPLWV = 104976
   max r-space proj   IRMAX =      1   max aug-charges    IRDMAX=   8555
   dimension x,y,z NGX =    54 NGY =   54 NGZ =   36
   dimension x,y,z NGXF=   108 NGYF=  108 NGZF=   72
   support grid    NGXF=   108 NGYF=  108 NGZF=   72
   ions per type =              32  15
 NGX,Y,Z   is equivalent  to a cutoff of   9.52,  9.52,  9.49 a.u.
 NGXF,Y,Z  is equivalent  to a cutoff of  19.04, 19.04, 18.98 a.u.


 I would recommend the setting:
   dimension x,y,z NGX =    51 NGY =   51 NGZ =   34
 SYSTEM =  SnO2                                    
 POSCAR =  SnO2                                    

 Startparameter for this run:
   NWRITE =      2    write-flag & timer
   PREC   = normal    normal or accurate (medium, high low for compatibility)
   ISTART =      1    job   : 0-new  1-cont  2-samecut
   ICHARG =      2    charge: 1-file 2-atom 10-const
   ISPIN  =      1    spin polarized calculation?
   LNONCOLLINEAR =      F non collinear calculations
   LSORBIT =      F    spin-orbit coupling
   INIWAV =      1    electr: 0-lowe 1-rand  2-diag
   LASPH  =      F    aspherical Exc in radial PAW
   METAGGA=      F    non-selfconsistent MetaGGA calc.

 Electronic Relaxation 1
   ENCUT  =  480.0 eV  35.28 Ry    5.94 a.u.  16.85 16.85 11.26*2*pi/ulx,y,z
   ENINI  =  480.0     initial cutoff
   ENAUG  =  605.4 eV  augmentation charge cutoff
   NELM   =     60;   NELMIN=  2; NELMDL= -5     # of ELM steps 
   EDIFF  = 0.1E-03   stopping-criterion for ELM
   LREAL  =      F    real-space projection
   NLSPLINE    = F    spline interpolate recip. space projectors
   LCOMPAT=      F    compatible to vasp.4.4
   GGA_COMPAT  = T    GGA compatible to vasp.4.4-vasp.4.6
   LMAXPAW     = -100 max onsite density
   LMAXMIX     =    4 max onsite mixed and CHGCAR
   VOSKOWN=      0    Vosko Wilk Nusair interpolation
   ROPT   =    0.00000   0.00000
 Ionic relaxation
   EDIFFG = -.5E-01   stopping-criterion for IOM
   NSW    =    100    number of steps for IOM
   NBLOCK =      1;   KBLOCK =    100    inner block; outer block 
   IBRION =      1    ionic relax: 0-MD 1-quasi-New 2-CG
   NFREE  =      0    steps in history (QN), initial steepest desc. (CG)
   ISIF   =      2    stress and relaxation
   IWAVPR =     11    prediction:  0-non 1-charg 2-wave 3-comb
   ISYM   =      2    0-nonsym 1-usesym 2-fastsym
   LCORR  =      T    Harris-Foulkes like correction to forces

   POTIM  = 0.5000    time-step for ionic-motion
   TEIN   =    0.0    initial temperature
   TEBEG  =    0.0;   TEEND  =   0.0 temperature during run
   SMASS  =  -3.00    Nose mass-parameter (am)
   estimated Nose-frequenzy (Omega)   =  0.10E-29 period in steps =****** mass=  -0.203E-26a.u.
   SCALEE = 1.0000    scale energy and forces
   NPACO  =    256;   APACO  = 16.0  distance and # of slots for P.C.
   PSTRESS=    0.0 pullay stress

  Mass of Ions in am
   POMASS =  16.00118.71
  Ionic Valenz
   ZVAL   =   6.00 14.00
  Atomic Wigner-Seitz radii
   RWIGS  =  -1.00 -1.00
  virtual crystal weights 
   VCA    =   1.00  1.00
   NELECT =     402.0000    total number of electrons
   NUPDOWN=      -1.0000    fix difference up-down

 DOS related values:
   EMIN   =  10.00;   EMAX   =-10.00  energy-range for DOS
   EFERMI =   0.00
   ISMEAR =     0;   SIGMA  =   0.10  broadening in eV -4-tet -1-fermi 0-gaus

 Electronic relaxation 2 (details)
   IALGO  =     48    algorithm
   LDIAG  =      T    sub-space diagonalisation (order eigenvalues)
   LSUBROT=      F    optimize rotation matrix (better conditioning)
   TURBO    =      0    0=normal 1=particle mesh
   IRESTART =      0    0=no restart 2=restart with 2 vectors
   NREBOOT  =      0    no. of reboots
   NMIN     =      0    reboot dimension
   EREF     =   0.00    reference energy to select bands
   IMIX   =      4    mixing-type and parameters
     AMIX     =   0.40;   BMIX     =  1.00
     AMIX_MAG =   1.60;   BMIX_MAG =  1.00
     AMIN     =   0.10
     WC   =   100.;   INIMIX=   1;  MIXPRE=   1;  MAXMIX= -45

 Intra band minimization:
   WEIMIN = 0.0010     energy-eigenvalue tresh-hold
   EBREAK =  0.10E-06  absolut break condition
   DEPER  =   0.30     relativ break condition  

   TIME   =   0.40     timestep for ELM

  volume/ion in A,a.u.               =      11.94        80.55
  Fermi-wavevector in a.u.,A,eV,Ry     =   1.464985  2.768421 29.200578  2.146182
  Thomas-Fermi vector in A             =   2.580896
 
 Write flags
   LWAVE  =      T    write WAVECAR
   LCHARG =      T    write CHGCAR
   LVTOT  =      F    write LOCPOT, total local potential
   LVHAR  =      F    write LOCPOT, Hartree potential only
   LELF   =      F    write electronic localiz. function (ELF)
   LORBIT =      0    0 simple, 1 ext, 2 COOP (PROOUT)


 Dipole corrections
   LMONO  =      F    monopole corrections only (constant potential shift)
   LDIPOL =      F    correct potential (dipole corrections)
   IDIPOL =      0    1-x, 2-y, 3-z, 4-all directions 
   EPSILON=  1.0000000 bulk dielectric constant

 LDA+U is selected, type is set to LDAUTYPE =  2
   angular momentum for each species LDAUL =    -1    2
   U (eV)           for each species LDAUU =   0.0  4.0
   J (eV)           for each species LDAUJ =   0.0  0.0
 Exchange correlation treatment:
   GGA     =    --    GGA type
   LEXCH   =     8    internal setting for exchange type
   VOSKOWN=      0    Vosko Wilk Nusair interpolation
   LHFCALC =     F    Hartree Fock is set to
   LHFONE  =     F    Hartree Fock one center treatment
   AEXX    =    0.0000 exact exchange contribution

 Linear response parameters
   LEPSILON=     F    determine dielectric tensor
   LRPA    =     F    only Hartree local field effects (RPA)
   LNABLA  =     F    use nabla operator in PAW spheres
   LVEL    =     F    velocity operator in full k-point grid
   LINTERFAST=   F  fast interpolation
   KINTER  =     0    interpolate to denser k-point grid
   CSHIFT  =0.1000    complex shift for real part using Kramers Kronig
   OMEGAMAX=  -1.0    maximum frequency
   DEG_THRESHOLD= 0.2000000E-02 threshold for treating states as degnerate
   RTIME   =    0.100 relaxation time in fs

 Orbital magnetization related:
   ORBITALMAG=     F  switch on orbital magnetization
   LCHIMAG   =     F  perturbation theory with respect to B field
   DQ        =  0.001000  dq finite difference perturbation B field



--------------------------------------------------------------------------------------------------------


 quasi-Newton-method for relaxation of ions
   using selective dynamics as specified on POSCAR
 charge density and potential will be updated during run
 non-spin polarized calculation
 RMM-DIIS sequential band-by-band
 perform sub-space diagonalisation
    before iterative eigenvector-optimisation
 modified Broyden-mixing scheme, WC =      100.0
 initial mixing is a Kerker type mixing with AMIX =  0.4000 and BMIX =      1.0000
 Hartree-type preconditioning will be used
 using additional bands           43
 reciprocal scheme for non local part
 use partial core corrections
 calculate Harris-corrections to forces 
   (improved forces if not selfconsistent)
 use gradient corrections 
 use of overlap-Matrix (Vanderbilt PP)
 Gauss-broadening in eV      SIGMA  =   0.10


--------------------------------------------------------------------------------------------------------


  energy-cutoff  :      480.00
  volume of cell :      560.98
      direct lattice vectors                 reciprocal lattice vectors
     9.432027167  0.000000000  0.000000000     0.106021747  0.000000000  0.000000000
     0.000000000  9.432027167  0.000000000     0.000000000  0.106021747  0.000000000
     0.000000000  0.000000000  6.305806843     0.000000000  0.000000000  0.158583989

  length of vectors
     9.432027167  9.432027167  6.305806843     0.106021747  0.106021747  0.158583989


 
 old parameters found on file WAVECAR:
  energy-cutoff  :      480.00
  volume of cell :      560.98
      direct lattice vectors                 reciprocal lattice vectors
     9.432027167  0.000000000  0.000000000     0.106021747  0.000000000  0.000000000
     0.000000000  9.432027167  0.000000000     0.000000000  0.106021747  0.000000000
     0.000000000  0.000000000  6.305806843     0.000000000  0.000000000  0.158583989

  length of vectors

 
 k-points in units of 2pi/SCALE and weight: Automatic mesh                          
   0.00000000  0.00000000  0.01982300       0.056
   0.03534058  0.00000000  0.01982300       0.222
   0.03534058  0.03534058  0.01982300       0.111
  -0.03534058  0.03534058  0.01982300       0.111
   0.00000000  0.00000000  0.05946900       0.056
   0.03534058  0.00000000  0.05946900       0.222
   0.03534058  0.03534058  0.05946900       0.111
  -0.03534058  0.03534058  0.05946900       0.111
 
 k-points in reciprocal lattice and weights: Automatic mesh                          
   0.00000000  0.00000000  0.12500000       0.056
   0.33333333  0.00000000  0.12500000       0.222
   0.33333333  0.33333333  0.12500000       0.111
  -0.33333333  0.33333333  0.12500000       0.111
   0.00000000  0.00000000  0.37500000       0.056
   0.33333333  0.00000000  0.37500000       0.222
   0.33333333  0.33333333  0.37500000       0.111
  -0.33333333  0.33333333  0.37500000       0.111
 
 position of ions in fractional coordinates (direct lattice) 
   0.10220049  0.89779951  0.72800742
   0.40273592  0.59726408  0.74944428
   0.90305987  0.59661668  0.75014288
   0.65103790  0.15430947  0.00000000
   0.84569053  0.34896210  0.00000000
   0.89779951  0.10220049  0.27199258
   0.59726408  0.40273592  0.25055572
   0.64687110  0.15646857  0.50000000
   0.35312890  0.84353143  0.50000000
   0.84353143  0.35312890  0.50000000
   0.59726408  0.40273592  0.74944428
   0.65041337  0.65041337  0.00000000
   0.84418749  0.84418749  0.00000000
   0.90305987  0.59661668  0.24985712
   0.59661668  0.90305987  0.24985712
   0.65323863  0.65323863  0.50000000
   0.84601384  0.84601384  0.50000000
   0.89779951  0.10220049  0.72800742
   0.15646857  0.64687110  0.50000000
   0.59661668  0.90305987  0.75014288
   0.34676137  0.34676137  0.50000000
   0.10220049  0.89779951  0.27199258
   0.40273592  0.59726408  0.25055572
   0.34896210  0.84569053  0.00000000
   0.15398616  0.15398616  0.50000000
   0.15581251  0.15581251  0.00000000
   0.15430947  0.65103790  0.00000000
   0.09694013  0.40338332  0.24985712
   0.40338332  0.09694013  0.75014288
   0.09694013  0.40338332  0.75014288
   0.34958663  0.34958663  0.00000000
   0.40338332  0.09694013  0.24985712
   0.50000000  0.50000000  0.50000000
   0.75113165  0.75113165  0.75204342
   0.24886835  0.24886835  0.24795658
   0.00000000  0.00000000  0.50000000
   0.75113165  0.75113165  0.24795658
   0.00000000  0.50000000  0.50000000
   0.24886835  0.24886835  0.75204342
   0.24992649  0.75007351  0.75048179
   0.75007351  0.24992649  0.75048179
   0.50000000  0.00000000  0.50000000
   0.00000000  0.50000000  0.00000000
   0.24992649  0.75007351  0.24951821
   0.75007351  0.24992649  0.24951821
   0.50000000  0.00000000  0.00000000
   0.50000000  0.50000000  0.00000000
 
 position of ions in cartesian coordinates  (Angst):
   0.96395783  8.46806934  4.59067419
   3.79861613  5.63341103  4.72585087
   8.51768527  5.62730476  4.73025608
   6.14060716  1.45545112  0.00000000
   7.97657605  3.29142001  0.00000000
   8.46806934  0.96395783  1.71513265
   5.63341103  3.79861613  1.57995597
   6.10130577  1.47581580  3.15290342
   3.33072140  7.95621137  3.15290342
   7.95621137  3.33072140  3.15290342
   5.63341103  3.79861613  4.72585087
   6.13471654  6.13471654  0.00000000
   7.96239931  7.96239931  0.00000000
   8.51768527  5.62730476  1.57555077
   5.62730476  8.51768527  1.57555077
   6.16136448  6.16136448  3.15290342
   7.97962550  7.97962550  3.15290342
   8.46806934  0.96395783  4.59067419
   1.47581580  6.10130577  3.15290342
   5.62730476  8.51768527  4.73025608
   3.27066269  3.27066269  3.15290342
   0.96395783  8.46806934  1.71513265
   3.79861613  5.63341103  1.57995597
   3.29142001  7.97657605  0.00000000
   1.45240167  1.45240167  3.15290342
   1.46962786  1.46962786  0.00000000
   1.45545112  6.14060716  0.00000000
   0.91434189  3.80472241  1.57555077
   3.80472241  0.91434189  4.73025608
   0.91434189  3.80472241  4.73025608
   3.29731062  3.29731062  0.00000000
   3.80472241  0.91434189  1.57555077
   4.71601358  4.71601358  3.15290342
   7.08469412  7.08469412  4.74224052
   2.34733304  2.34733304  1.56356633
   0.00000000  0.00000000  3.15290342
   7.08469412  7.08469412  1.56356633
   0.00000000  4.71601358  3.15290342
   2.34733304  2.34733304  4.74224052
   2.35731341  7.07471376  4.73239321
   7.07471376  2.35731341  4.73239321
   4.71601358  0.00000000  3.15290342
   0.00000000  4.71601358  0.00000000
   2.35731341  7.07471376  1.57341363
   7.07471376  2.35731341  1.57341363
   4.71601358  0.00000000  0.00000000
   4.71601358  4.71601358  0.00000000
 


--------------------------------------------------------------------------------------------------------


 k-point  1 :   0.0000 0.0000 0.1250  plane waves:   13447
 k-point  2 :   0.3333 0.0000 0.1250  plane waves:   13402
 k-point  3 :   0.3333 0.3333 0.1250  plane waves:   13398
 k-point  4 :  -0.3333 0.3333 0.1250  plane waves:   13398
 k-point  5 :   0.0000 0.0000 0.3750  plane waves:   13390
 k-point  6 :   0.3333 0.0000 0.3750  plane waves:   13392
 k-point  7 :   0.3333 0.3333 0.3750  plane waves:   13396
 k-point  8 :  -0.3333 0.3333 0.3750  plane waves:   13396

 maximum and minimum number of plane-waves per node :      1695     1657

 maximum number of plane-waves:     13447
 maximum index in each direction: 
   IXMAX=   17   IYMAX=   16   IZMAX=   11
   IXMIN=  -17   IYMIN=  -17   IZMIN=  -11

 WARNING: aliasing errors must be expected set NGX to  70 to avoid them
 WARNING: aliasing errors must be expected set NGY to  68 to avoid them
 WARNING: aliasing errors must be expected set NGZ to  46 to avoid them
 aliasing errors are usually negligible using standard VASP settings
 and one can safely disregard these warnings

 parallel 3D FFT for wavefunctions:
    minimum data exchange during FFTs selected (reduces bandwidth)
 parallel 3D FFT for charge:
    minimum data exchange during FFTs selected (reduces bandwidth)


 total amount of memory used by VASP on root node    52824. kBytes
========================================================================

   base      :      30000. kBytes
   nonl-proj :       5182. kBytes
   fftplans  :       1450. kBytes
   grid      :       2326. kBytes
   one-center:         93. kBytes
   wavefun   :      13773. kBytes
 
     INWAV:  cpu time   34.9737: real time   35.7615
 Broyden mixing: mesh for mixing (old mesh)
   NGX = 33   NGY = 33   NGZ = 23
  (NGX  =108   NGY  =108   NGZ  = 72)
  gives a total of  25047 points

 initial charge density was supplied:
 charge density of overlapping atoms calculated
 number of electron     402.0000000 magnetization 
 keeping initial charge density in first step


--------------------------------------------------------------------------------------------------------


 Maximum index for augmentation-charges          526 (set IRDMAX)


--------------------------------------------------------------------------------------------------------


 First call to EWALD:  gamma=   0.215
 Maximum number of real-space cells 2x 2x 3
 Maximum number of reciprocal cells 3x 3x 2

 FEWALD executed in parallel
    FEWALD:  cpu time    0.1010: real time    0.1007


----------------------------------------- Iteration    1(   1)  ---------------------------------------


    POTLOK:  cpu time    0.5869: real time    0.5882
    SETDIJ:  cpu time    0.1890: real time    0.1887
atom =  33  type =  2  l = 2
 
 onsite density matrix
 
spin component  1
 
  0.9926  0.0000  0.0000  0.0000  0.0000
  0.0000  0.9926  0.0000  0.0000  0.0000
  0.0000  0.0000  0.9926  0.0000  0.0000
  0.0000  0.0000  0.0000  0.9926  0.0000
  0.0000  0.0000  0.0000  0.0000  0.9926
 
spin component  2
 
  0.9926  0.0000  0.0000  0.0000  0.0000
  0.0000  0.9926  0.0000  0.0000  0.0000
  0.0000  0.0000  0.9926  0.0000  0.0000
  0.0000  0.0000  0.0000  0.9926  0.0000
  0.0000  0.0000  0.0000  0.0000  0.9926
 
 occupancies and eigenvectors
 
  o =  0.9926  v =  1.0000  0.0000  0.0000  0.0000  0.0000  0.0000  0.0000  0.0000  0.0000  0.0000      0.0000  0.0000  0.0000  0.0000  0.0000  0.0000  0.0000  0.0000  0.0000  0.0000
  o =  0.9926  v =  0.0000  1.0000  0.0000  0.0000  0.0000  0.0000  0.0000  0.0000  0.0000  0.0000      0.0000  0.0000  0.0000  0.0000  0.0000  0.0000  0.0000  0.0000  0.0000  0.0000
  o =  0.9926  v =  0.0000  0.0000  1.0000  0.0000  0.0000  0.0000  0.0000  0.0000  0.0000  0.0000      0.0000  0.0000  0.0000  0.0000  0.0000  0.0000  0.0000  0.0000  0.0000  0.0000
  o =  0.9926  v =  0.0000  0.0000  0.0000  1.0000  0.0000  0.0000  0.0000  0.0000  0.0000  0.0000      0.0000  0.0000  0.0000  0.0000  0.0000  0.0000  0.0000  0.0000  0.0000  0.0000
  o =  0.9926  v =  0.0000  0.0000  0.0000  0.0000  1.0000  0.0000  0.0000  0.0000  0.0000  0.0000      0.0000  0.0000  0.0000  0.0000  0.0000  0.0000  0.0000  0.0000  0.0000  0.0000
  o =  0.9926  v =  0.0000  0.0000  0.0000  0.0000  0.0000  1.0000  0.0000  0.0000  0.0000  0.0000      0.0000  0.0000  0.0000  0.0000  0.0000  0.0000  0.0000  0.0000  0.0000  0.0000
  o =  0.9926  v =  0.0000  0.0000  0.0000  0.0000  0.0000  0.0000  1.0000  0.0000  0.0000  0.0000      0.0000  0.0000  0.0000  0.0000  0.0000  0.0000  0.0000  0.0000  0.0000  0.0000
  o =  0.9926  v =  0.0000  0.0000  0.0000  0.0000  0.0000  0.0000  0.0000  1.0000  0.0000  0.0000      0.0000  0.0000  0.0000  0.0000  0.0000  0.0000  0.0000  0.0000  0.0000  0.0000
  o =  0.9926  v =  0.0000  0.0000  0.0000  0.0000  0.0000  0.0000  0.0000  0.0000  1.0000  0.0000      0.0000  0.0000  0.0000  0.0000  0.0000  0.0000  0.0000  0.0000  0.0000  0.0000
  o =  0.9926  v =  0.0000  0.0000  0.0000  0.0000  0.0000  0.0000  0.0000  0.0000  0.0000  1.0000      0.0000  0.0000  0.0000  0.0000  0.0000  0.0000  0.0000  0.0000  0.0000  0.0000
atom =  34  type =  2  l = 2
 
 onsite density matrix
 
spin component  1
 
  0.9926  0.0000  0.0000  0.0000  0.0000
  0.0000  0.9926  0.0000  0.0000  0.0000
  0.0000  0.0000  0.9926  0.0000  0.0000
  0.0000  0.0000  0.0000  0.9926  0.0000
  0.0000  0.0000  0.0000  0.0000  0.9926
 
spin component  2
 
  0.9926  0.0000  0.0000  0.0000  0.0000
  0.0000  0.9926  0.0000  0.0000  0.0000
  0.0000  0.0000  0.9926  0.0000  0.0000
  0.0000  0.0000  0.0000  0.9926  0.0000
  0.0000  0.0000  0.0000  0.0000  0.9926
 
 occupancies and eigenvectors
 
  o =  0.9926  v =  1.0000  0.0000  0.0000  0.0000  0.0000  0.0000  0.0000  0.0000  0.0000  0.0000      0.0000  0.0000  0.0000  0.0000  0.0000  0.0000  0.0000  0.0000  0.0000  0.0000
  o =  0.9926  v =  0.0000  1.0000  0.0000  0.0000  0.0000  0.0000  0.0000  0.0000  0.0000  0.0000      0.0000  0.0000  0.0000  0.0000  0.0000  0.0000  0.0000  0.0000  0.0000  0.0000
  o =  0.9926  v =  0.0000  0.0000  1.0000  0.0000  0.0000  0.0000  0.0000  0.0000  0.0000  0.0000      0.0000  0.0000  0.0000  0.0000  0.0000  0.0000  0.0000  0.0000  0.0000  0.0000
  o =  0.9926  v =  0.0000  0.0000  0.0000  1.0000  0.0000  0.0000  0.0000  0.0000  0.0000  0.0000      0.0000  0.0000  0.0000  0.0000  0.0000  0.0000  0.0000  0.0000  0.0000  0.0000
  o =  0.9926  v =  0.0000  0.0000  0.0000  0.0000  1.0000  0.0000  0.0000  0.0000  0.0000  0.0000      0.0000  0.0000  0.0000  0.0000  0.0000  0.0000  0.0000  0.0000  0.0000  0.0000
  o =  0.9926  v =  0.0000  0.0000  0.0000  0.0000  0.0000  1.0000  0.0000  0.0000  0.0000  0.0000      0.0000  0.0000  0.0000  0.0000  0.0000  0.0000  0.0000  0.0000  0.0000  0.0000
  o =  0.9926  v =  0.0000  0.0000  0.0000  0.0000  0.0000  0.0000  1.0000  0.0000  0.0000  0.0000      0.0000  0.0000  0.0000  0.0000  0.0000  0.0000  0.0000  0.0000  0.0000  0.0000
  o =  0.9926  v =  0.0000  0.0000  0.0000  0.0000  0.0000  0.0000  0.0000  1.0000  0.0000  0.0000      0.0000  0.0000  0.0000  0.0000  0.0000  0.0000  0.0000  0.0000  0.0000  0.0000
  o =  0.9926  v =  0.0000  0.0000  0.0000  0.0000  0.0000  0.0000  0.0000  0.0000  1.0000  0.0000      0.0000  0.0000  0.0000  0.0000  0.0000  0.0000  0.0000  0.0000  0.0000  0.0000
  o =  0.9926  v =  0.0000  0.0000  0.0000  0.0000  0.0000  0.0000  0.0000  0.0000  0.0000  1.0000      0.0000  0.0000  0.0000  0.0000  0.0000  0.0000  0.0000  0.0000  0.0000  0.0000
atom =  35  type =  2  l = 2
 
 onsite density matrix
 
spin component  1
 
  0.9926  0.0000  0.0000  0.0000  0.0000
  0.0000  0.9926  0.0000  0.0000  0.0000
  0.0000  0.0000  0.9926  0.0000  0.0000
  0.0000  0.0000  0.0000  0.9926  0.0000
  0.0000  0.0000  0.0000  0.0000  0.9926
 
spin component  2
 
  0.9926  0.0000  0.0000  0.0000  0.0000
  0.0000  0.9926  0.0000  0.0000  0.0000
  0.0000  0.0000  0.9926  0.0000  0.0000
  0.0000  0.0000  0.0000  0.9926  0.0000
  0.0000  0.0000  0.0000  0.0000  0.9926
 
 occupancies and eigenvectors
 
  o =  0.9926  v =  1.0000  0.0000  0.0000  0.0000  0.0000  0.0000  0.0000  0.0000  0.0000  0.0000      0.0000  0.0000  0.0000  0.0000  0.0000  0.0000  0.0000  0.0000  0.0000  0.0000
  o =  0.9926  v =  0.0000  1.0000  0.0000  0.0000  0.0000  0.0000  0.0000  0.0000  0.0000  0.0000      0.0000  0.0000  0.0000  0.0000  0.0000  0.0000  0.0000  0.0000  0.0000  0.0000
  o =  0.9926  v =  0.0000  0.0000  1.0000  0.0000  0.0000  0.0000  0.0000  0.0000  0.0000  0.0000      0.0000  0.0000  0.0000  0.0000  0.0000  0.0000  0.0000  0.0000  0.0000  0.0000
  o =  0.9926  v =  0.0000  0.0000  0.0000  1.0000  0.0000  0.0000  0.0000  0.0000  0.0000  0.0000      0.0000  0.0000  0.0000  0.0000  0.0000  0.0000  0.0000  0.0000  0.0000  0.0000
  o =  0.9926  v =  0.0000  0.0000  0.0000  0.0000  1.0000  0.0000  0.0000  0.0000  0.0000  0.0000      0.0000  0.0000  0.0000  0.0000  0.0000  0.0000  0.0000  0.0000  0.0000  0.0000
  o =  0.9926  v =  0.0000  0.0000  0.0000  0.0000  0.0000  1.0000  0.0000  0.0000  0.0000  0.0000      0.0000  0.0000  0.0000  0.0000  0.0000  0.0000  0.0000  0.0000  0.0000  0.0000
  o =  0.9926  v =  0.0000  0.0000  0.0000  0.0000  0.0000  0.0000  1.0000  0.0000  0.0000  0.0000      0.0000  0.0000  0.0000  0.0000  0.0000  0.0000  0.0000  0.0000  0.0000  0.0000
  o =  0.9926  v =  0.0000  0.0000  0.0000  0.0000  0.0000  0.0000  0.0000  1.0000  0.0000  0.0000      0.0000  0.0000  0.0000  0.0000  0.0000  0.0000  0.0000  0.0000  0.0000  0.0000
  o =  0.9926  v =  0.0000  0.0000  0.0000  0.0000  0.0000  0.0000  0.0000  0.0000  1.0000  0.0000      0.0000  0.0000  0.0000  0.0000  0.0000  0.0000  0.0000  0.0000  0.0000  0.0000
  o =  0.9926  v =  0.0000  0.0000  0.0000  0.0000  0.0000  0.0000  0.0000  0.0000  0.0000  1.0000      0.0000  0.0000  0.0000  0.0000  0.0000  0.0000  0.0000  0.0000  0.0000  0.0000
atom =  36  type =  2  l = 2
 
 onsite density matrix
 
spin component  1
 
  0.9926  0.0000  0.0000  0.0000  0.0000
  0.0000  0.9926  0.0000  0.0000  0.0000
  0.0000  0.0000  0.9926  0.0000  0.0000
  0.0000  0.0000  0.0000  0.9926  0.0000
  0.0000  0.0000  0.0000  0.0000  0.9926
 
spin component  2
 
  0.9926  0.0000  0.0000  0.0000  0.0000
  0.0000  0.9926  0.0000  0.0000  0.0000
  0.0000  0.0000  0.9926  0.0000  0.0000
  0.0000  0.0000  0.0000  0.9926  0.0000
  0.0000  0.0000  0.0000  0.0000  0.9926
 
 occupancies and eigenvectors
 
  o =  0.9926  v =  1.0000  0.0000  0.0000  0.0000  0.0000  0.0000  0.0000  0.0000  0.0000  0.0000      0.0000  0.0000  0.0000  0.0000  0.0000  0.0000  0.0000  0.0000  0.0000  0.0000
  o =  0.9926  v =  0.0000  1.0000  0.0000  0.0000  0.0000  0.0000  0.0000  0.0000  0.0000  0.0000      0.0000  0.0000  0.0000  0.0000  0.0000  0.0000  0.0000  0.0000  0.0000  0.0000
  o =  0.9926  v =  0.0000  0.0000  1.0000  0.0000  0.0000  0.0000  0.0000  0.0000  0.0000  0.0000      0.0000  0.0000  0.0000  0.0000  0.0000  0.0000  0.0000  0.0000  0.0000  0.0000
  o =  0.9926  v =  0.0000  0.0000  0.0000  1.0000  0.0000  0.0000  0.0000  0.0000  0.0000  0.0000      0.0000  0.0000  0.0000  0.0000  0.0000  0.0000  0.0000  0.0000  0.0000  0.0000
  o =  0.9926  v =  0.0000  0.0000  0.0000  0.0000  1.0000  0.0000  0.0000  0.0000  0.0000  0.0000      0.0000  0.0000  0.0000  0.0000  0.0000  0.0000  0.0000  0.0000  0.0000  0.0000
  o =  0.9926  v =  0.0000  0.0000  0.0000  0.0000  0.0000  1.0000  0.0000  0.0000  0.0000  0.0000      0.0000  0.0000  0.0000  0.0000  0.0000  0.0000  0.0000  0.0000  0.0000  0.0000
  o =  0.9926  v =  0.0000  0.0000  0.0000  0.0000  0.0000  0.0000  1.0000  0.0000  0.0000  0.0000      0.0000  0.0000  0.0000  0.0000  0.0000  0.0000  0.0000  0.0000  0.0000  0.0000
  o =  0.9926  v =  0.0000  0.0000  0.0000  0.0000  0.0000  0.0000  0.0000  1.0000  0.0000  0.0000      0.0000  0.0000  0.0000  0.0000  0.0000  0.0000  0.0000  0.0000  0.0000  0.0000
  o =  0.9926  v =  0.0000  0.0000  0.0000  0.0000  0.0000  0.0000  0.0000  0.0000  1.0000  0.0000      0.0000  0.0000  0.0000  0.0000  0.0000  0.0000  0.0000  0.0000  0.0000  0.0000
  o =  0.9926  v =  0.0000  0.0000  0.0000  0.0000  0.0000  0.0000  0.0000  0.0000  0.0000  1.0000      0.0000  0.0000  0.0000  0.0000  0.0000  0.0000  0.0000  0.0000  0.0000  0.0000
atom =  37  type =  2  l = 2
 
 onsite density matrix
 
spin component  1
 
  0.9926  0.0000  0.0000  0.0000  0.0000
  0.0000  0.9926  0.0000  0.0000  0.0000
  0.0000  0.0000  0.9926  0.0000  0.0000
  0.0000  0.0000  0.0000  0.9926  0.0000
  0.0000  0.0000  0.0000  0.0000  0.9926
 
spin component  2
 
  0.9926  0.0000  0.0000  0.0000  0.0000
  0.0000  0.9926  0.0000  0.0000  0.0000
  0.0000  0.0000  0.9926  0.0000  0.0000
  0.0000  0.0000  0.0000  0.9926  0.0000
  0.0000  0.0000  0.0000  0.0000  0.9926
 
 occupancies and eigenvectors
 
  o =  0.9926  v =  1.0000  0.0000  0.0000  0.0000  0.0000  0.0000  0.0000  0.0000  0.0000  0.0000      0.0000  0.0000  0.0000  0.0000  0.0000  0.0000  0.0000  0.0000  0.0000  0.0000
  o =  0.9926  v =  0.0000  1.0000  0.0000  0.0000  0.0000  0.0000  0.0000  0.0000  0.0000  0.0000      0.0000  0.0000  0.0000  0.0000  0.0000  0.0000  0.0000  0.0000  0.0000  0.0000
  o =  0.9926  v =  0.0000  0.0000  1.0000  0.0000  0.0000  0.0000  0.0000  0.0000  0.0000  0.0000      0.0000  0.0000  0.0000  0.0000  0.0000  0.0000  0.0000  0.0000  0.0000  0.0000
  o =  0.9926  v =  0.0000  0.0000  0.0000  1.0000  0.0000  0.0000  0.0000  0.0000  0.0000  0.0000      0.0000  0.0000  0.0000  0.0000  0.0000  0.0000  0.0000  0.0000  0.0000  0.0000
  o =  0.9926  v =  0.0000  0.0000  0.0000  0.0000  1.0000  0.0000  0.0000  0.0000  0.0000  0.0000      0.0000  0.0000  0.0000  0.0000  0.0000  0.0000  0.0000  0.0000  0.0000  0.0000
  o =  0.9926  v =  0.0000  0.0000  0.0000  0.0000  0.0000  1.0000  0.0000  0.0000  0.0000  0.0000      0.0000  0.0000  0.0000  0.0000  0.0000  0.0000  0.0000  0.0000  0.0000  0.0000
  o =  0.9926  v =  0.0000  0.0000  0.0000  0.0000  0.0000  0.0000  1.0000  0.0000  0.0000  0.0000      0.0000  0.0000  0.0000  0.0000  0.0000  0.0000  0.0000  0.0000  0.0000  0.0000
  o =  0.9926  v =  0.0000  0.0000  0.0000  0.0000  0.0000  0.0000  0.0000  1.0000  0.0000  0.0000      0.0000  0.0000  0.0000  0.0000  0.0000  0.0000  0.0000  0.0000  0.0000  0.0000
  o =  0.9926  v =  0.0000  0.0000  0.0000  0.0000  0.0000  0.0000  0.0000  0.0000  1.0000  0.0000      0.0000  0.0000  0.0000  0.0000  0.0000  0.0000  0.0000  0.0000  0.0000  0.0000
  o =  0.9926  v =  0.0000  0.0000  0.0000  0.0000  0.0000  0.0000  0.0000  0.0000  0.0000  1.0000      0.0000  0.0000  0.0000  0.0000  0.0000  0.0000  0.0000  0.0000  0.0000  0.0000
atom =  38  type =  2  l = 2
 
 onsite density matrix
 
spin component  1
 
  0.9926  0.0000  0.0000  0.0000  0.0000
  0.0000  0.9926  0.0000  0.0000  0.0000
  0.0000  0.0000  0.9926  0.0000  0.0000
  0.0000  0.0000  0.0000  0.9926  0.0000
  0.0000  0.0000  0.0000  0.0000  0.9926
 
spin component  2
 
  0.9926  0.0000  0.0000  0.0000  0.0000
  0.0000  0.9926  0.0000  0.0000  0.0000
  0.0000  0.0000  0.9926  0.0000  0.0000
  0.0000  0.0000  0.0000  0.9926  0.0000
  0.0000  0.0000  0.0000  0.0000  0.9926
 
 occupancies and eigenvectors
 
  o =  0.9926  v =  1.0000  0.0000  0.0000  0.0000  0.0000  0.0000  0.0000  0.0000  0.0000  0.0000      0.0000  0.0000  0.0000  0.0000  0.0000  0.0000  0.0000  0.0000  0.0000  0.0000
  o =  0.9926  v =  0.0000  1.0000  0.0000  0.0000  0.0000  0.0000  0.0000  0.0000  0.0000  0.0000      0.0000  0.0000  0.0000  0.0000  0.0000  0.0000  0.0000  0.0000  0.0000  0.0000
  o =  0.9926  v =  0.0000  0.0000  1.0000  0.0000  0.0000  0.0000  0.0000  0.0000  0.0000  0.0000      0.0000  0.0000  0.0000  0.0000  0.0000  0.0000  0.0000  0.0000  0.0000  0.0000
  o =  0.9926  v =  0.0000  0.0000  0.0000  1.0000  0.0000  0.0000  0.0000  0.0000  0.0000  0.0000      0.0000  0.0000  0.0000  0.0000  0.0000  0.0000  0.0000  0.0000  0.0000  0.0000
  o =  0.9926  v =  0.0000  0.0000  0.0000  0.0000  1.0000  0.0000  0.0000  0.0000  0.0000  0.0000      0.0000  0.0000  0.0000  0.0000  0.0000  0.0000  0.0000  0.0000  0.0000  0.0000
  o =  0.9926  v =  0.0000  0.0000  0.0000  0.0000  0.0000  1.0000  0.0000  0.0000  0.0000  0.0000      0.0000  0.0000  0.0000  0.0000  0.0000  0.0000  0.0000  0.0000  0.0000  0.0000
  o =  0.9926  v =  0.0000  0.0000  0.0000  0.0000  0.0000  0.0000  1.0000  0.0000  0.0000  0.0000      0.0000  0.0000  0.0000  0.0000  0.0000  0.0000  0.0000  0.0000  0.0000  0.0000
  o =  0.9926  v =  0.0000  0.0000  0.0000  0.0000  0.0000  0.0000  0.0000  1.0000  0.0000  0.0000      0.0000  0.0000  0.0000  0.0000  0.0000  0.0000  0.0000  0.0000  0.0000  0.0000
  o =  0.9926  v =  0.0000  0.0000  0.0000  0.0000  0.0000  0.0000  0.0000  0.0000  1.0000  0.0000      0.0000  0.0000  0.0000  0.0000  0.0000  0.0000  0.0000  0.0000  0.0000  0.0000
  o =  0.9926  v =  0.0000  0.0000  0.0000  0.0000  0.0000  0.0000  0.0000  0.0000  0.0000  1.0000      0.0000  0.0000  0.0000  0.0000  0.0000  0.0000  0.0000  0.0000  0.0000  0.0000
atom =  39  type =  2  l = 2
 
 onsite density matrix
 
spin component  1
 
  0.9926  0.0000  0.0000  0.0000  0.0000
  0.0000  0.9926  0.0000  0.0000  0.0000
  0.0000  0.0000  0.9926  0.0000  0.0000
  0.0000  0.0000  0.0000  0.9926  0.0000
  0.0000  0.0000  0.0000  0.0000  0.9926
 
spin component  2
 
  0.9926  0.0000  0.0000  0.0000  0.0000
  0.0000  0.9926  0.0000  0.0000  0.0000
  0.0000  0.0000  0.9926  0.0000  0.0000
  0.0000  0.0000  0.0000  0.9926  0.0000
  0.0000  0.0000  0.0000  0.0000  0.9926
 
 occupancies and eigenvectors
 
  o =  0.9926  v =  1.0000  0.0000  0.0000  0.0000  0.0000  0.0000  0.0000  0.0000  0.0000  0.0000      0.0000  0.0000  0.0000  0.0000  0.0000  0.0000  0.0000  0.0000  0.0000  0.0000
  o =  0.9926  v =  0.0000  1.0000  0.0000  0.0000  0.0000  0.0000  0.0000  0.0000  0.0000  0.0000      0.0000  0.0000  0.0000  0.0000  0.0000  0.0000  0.0000  0.0000  0.0000  0.0000
  o =  0.9926  v =  0.0000  0.0000  1.0000  0.0000  0.0000  0.0000  0.0000  0.0000  0.0000  0.0000      0.0000  0.0000  0.0000  0.0000  0.0000  0.0000  0.0000  0.0000  0.0000  0.0000
  o =  0.9926  v =  0.0000  0.0000  0.0000  1.0000  0.0000  0.0000  0.0000  0.0000  0.0000  0.0000      0.0000  0.0000  0.0000  0.0000  0.0000  0.0000  0.0000  0.0000  0.0000  0.0000
  o =  0.9926  v =  0.0000  0.0000  0.0000  0.0000  1.0000  0.0000  0.0000  0.0000  0.0000  0.0000      0.0000  0.0000  0.0000  0.0000  0.0000  0.0000  0.0000  0.0000  0.0000  0.0000
  o =  0.9926  v =  0.0000  0.0000  0.0000  0.0000  0.0000  1.0000  0.0000  0.0000  0.0000  0.0000      0.0000  0.0000  0.0000  0.0000  0.0000  0.0000  0.0000  0.0000  0.0000  0.0000
  o =  0.9926  v =  0.0000  0.0000  0.0000  0.0000  0.0000  0.0000  1.0000  0.0000  0.0000  0.0000      0.0000  0.0000  0.0000  0.0000  0.0000  0.0000  0.0000  0.0000  0.0000  0.0000
  o =  0.9926  v =  0.0000  0.0000  0.0000  0.0000  0.0000  0.0000  0.0000  1.0000  0.0000  0.0000      0.0000  0.0000  0.0000  0.0000  0.0000  0.0000  0.0000  0.0000  0.0000  0.0000
  o =  0.9926  v =  0.0000  0.0000  0.0000  0.0000  0.0000  0.0000  0.0000  0.0000  1.0000  0.0000      0.0000  0.0000  0.0000  0.0000  0.0000  0.0000  0.0000  0.0000  0.0000  0.0000
  o =  0.9926  v =  0.0000  0.0000  0.0000  0.0000  0.0000  0.0000  0.0000  0.0000  0.0000  1.0000      0.0000  0.0000  0.0000  0.0000  0.0000  0.0000  0.0000  0.0000  0.0000  0.0000
atom =  40  type =  2  l = 2
 
 onsite density matrix
 
spin component  1
 
  0.9926  0.0000  0.0000  0.0000  0.0000
  0.0000  0.9926  0.0000  0.0000  0.0000
  0.0000  0.0000  0.9926  0.0000  0.0000
  0.0000  0.0000  0.0000  0.9926  0.0000
  0.0000  0.0000  0.0000  0.0000  0.9926
 
spin component  2
 
  0.9926  0.0000  0.0000  0.0000  0.0000
  0.0000  0.9926  0.0000  0.0000  0.0000
  0.0000  0.0000  0.9926  0.0000  0.0000
  0.0000  0.0000  0.0000  0.9926  0.0000
  0.0000  0.0000  0.0000  0.0000  0.9926
 
 occupancies and eigenvectors
 
  o =  0.9926  v =  1.0000  0.0000  0.0000  0.0000  0.0000  0.0000  0.0000  0.0000  0.0000  0.0000      0.0000  0.0000  0.0000  0.0000  0.0000  0.0000  0.0000  0.0000  0.0000  0.0000
  o =  0.9926  v =  0.0000  1.0000  0.0000  0.0000  0.0000  0.0000  0.0000  0.0000  0.0000  0.0000      0.0000  0.0000  0.0000  0.0000  0.0000  0.0000  0.0000  0.0000  0.0000  0.0000
  o =  0.9926  v =  0.0000  0.0000  1.0000  0.0000  0.0000  0.0000  0.0000  0.0000  0.0000  0.0000      0.0000  0.0000  0.0000  0.0000  0.0000  0.0000  0.0000  0.0000  0.0000  0.0000
  o =  0.9926  v =  0.0000  0.0000  0.0000  1.0000  0.0000  0.0000  0.0000  0.0000  0.0000  0.0000      0.0000  0.0000  0.0000  0.0000  0.0000  0.0000  0.0000  0.0000  0.0000  0.0000
  o =  0.9926  v =  0.0000  0.0000  0.0000  0.0000  1.0000  0.0000  0.0000  0.0000  0.0000  0.0000      0.0000  0.0000  0.0000  0.0000  0.0000  0.0000  0.0000  0.0000  0.0000  0.0000
  o =  0.9926  v =  0.0000  0.0000  0.0000  0.0000  0.0000  1.0000  0.0000  0.0000  0.0000  0.0000      0.0000  0.0000  0.0000  0.0000  0.0000  0.0000  0.0000  0.0000  0.0000  0.0000
  o =  0.9926  v =  0.0000  0.0000  0.0000  0.0000  0.0000  0.0000  1.0000  0.0000  0.0000  0.0000      0.0000  0.0000  0.0000  0.0000  0.0000  0.0000  0.0000  0.0000  0.0000  0.0000
  o =  0.9926  v =  0.0000  0.0000  0.0000  0.0000  0.0000  0.0000  0.0000  1.0000  0.0000  0.0000      0.0000  0.0000  0.0000  0.0000  0.0000  0.0000  0.0000  0.0000  0.0000  0.0000
  o =  0.9926  v =  0.0000  0.0000  0.0000  0.0000  0.0000  0.0000  0.0000  0.0000  1.0000  0.0000      0.0000  0.0000  0.0000  0.0000  0.0000  0.0000  0.0000  0.0000  0.0000  0.0000
  o =  0.9926  v =  0.0000  0.0000  0.0000  0.0000  0.0000  0.0000  0.0000  0.0000  0.0000  1.0000      0.0000  0.0000  0.0000  0.0000  0.0000  0.0000  0.0000  0.0000  0.0000  0.0000
atom =  41  type =  2  l = 2
 
 onsite density matrix
 
spin component  1
 
  0.9926  0.0000  0.0000  0.0000  0.0000
  0.0000  0.9926  0.0000  0.0000  0.0000
  0.0000  0.0000  0.9926  0.0000  0.0000
  0.0000  0.0000  0.0000  0.9926  0.0000
  0.0000  0.0000  0.0000  0.0000  0.9926
 
spin component  2
 
  0.9926  0.0000  0.0000  0.0000  0.0000
  0.0000  0.9926  0.0000  0.0000  0.0000
  0.0000  0.0000  0.9926  0.0000  0.0000
  0.0000  0.0000  0.0000  0.9926  0.0000
  0.0000  0.0000  0.0000  0.0000  0.9926
 
 occupancies and eigenvectors
 
  o =  0.9926  v =  1.0000  0.0000  0.0000  0.0000  0.0000  0.0000  0.0000  0.0000  0.0000  0.0000      0.0000  0.0000  0.0000  0.0000  0.0000  0.0000  0.0000  0.0000  0.0000  0.0000
  o =  0.9926  v =  0.0000  1.0000  0.0000  0.0000  0.0000  0.0000  0.0000  0.0000  0.0000  0.0000      0.0000  0.0000  0.0000  0.0000  0.0000  0.0000  0.0000  0.0000  0.0000  0.0000
  o =  0.9926  v =  0.0000  0.0000  1.0000  0.0000  0.0000  0.0000  0.0000  0.0000  0.0000  0.0000      0.0000  0.0000  0.0000  0.0000  0.0000  0.0000  0.0000  0.0000  0.0000  0.0000
  o =  0.9926  v =  0.0000  0.0000  0.0000  1.0000  0.0000  0.0000  0.0000  0.0000  0.0000  0.0000      0.0000  0.0000  0.0000  0.0000  0.0000  0.0000  0.0000  0.0000  0.0000  0.0000
  o =  0.9926  v =  0.0000  0.0000  0.0000  0.0000  1.0000  0.0000  0.0000  0.0000  0.0000  0.0000      0.0000  0.0000  0.0000  0.0000  0.0000  0.0000  0.0000  0.0000  0.0000  0.0000
  o =  0.9926  v =  0.0000  0.0000  0.0000  0.0000  0.0000  1.0000  0.0000  0.0000  0.0000  0.0000      0.0000  0.0000  0.0000  0.0000  0.0000  0.0000  0.0000  0.0000  0.0000  0.0000
  o =  0.9926  v =  0.0000  0.0000  0.0000  0.0000  0.0000  0.0000  1.0000  0.0000  0.0000  0.0000      0.0000  0.0000  0.0000  0.0000  0.0000  0.0000  0.0000  0.0000  0.0000  0.0000
  o =  0.9926  v =  0.0000  0.0000  0.0000  0.0000  0.0000  0.0000  0.0000  1.0000  0.0000  0.0000      0.0000  0.0000  0.0000  0.0000  0.0000  0.0000  0.0000  0.0000  0.0000  0.0000
  o =  0.9926  v =  0.0000  0.0000  0.0000  0.0000  0.0000  0.0000  0.0000  0.0000  1.0000  0.0000      0.0000  0.0000  0.0000  0.0000  0.0000  0.0000  0.0000  0.0000  0.0000  0.0000
  o =  0.9926  v =  0.0000  0.0000  0.0000  0.0000  0.0000  0.0000  0.0000  0.0000  0.0000  1.0000      0.0000  0.0000  0.0000  0.0000  0.0000  0.0000  0.0000  0.0000  0.0000  0.0000
atom =  42  type =  2  l = 2
 
 onsite density matrix
 
spin component  1
 
  0.9926  0.0000  0.0000  0.0000  0.0000
  0.0000  0.9926  0.0000  0.0000  0.0000
  0.0000  0.0000  0.9926  0.0000  0.0000
  0.0000  0.0000  0.0000  0.9926  0.0000
  0.0000  0.0000  0.0000  0.0000  0.9926
 
spin component  2
 
  0.9926  0.0000  0.0000  0.0000  0.0000
  0.0000  0.9926  0.0000  0.0000  0.0000
  0.0000  0.0000  0.9926  0.0000  0.0000
  0.0000  0.0000  0.0000  0.9926  0.0000
  0.0000  0.0000  0.0000  0.0000  0.9926
 
 occupancies and eigenvectors
 
  o =  0.9926  v =  1.0000  0.0000  0.0000  0.0000  0.0000  0.0000  0.0000  0.0000  0.0000  0.0000      0.0000  0.0000  0.0000  0.0000  0.0000  0.0000  0.0000  0.0000  0.0000  0.0000
  o =  0.9926  v =  0.0000  1.0000  0.0000  0.0000  0.0000  0.0000  0.0000  0.0000  0.0000  0.0000      0.0000  0.0000  0.0000  0.0000  0.0000  0.0000  0.0000  0.0000  0.0000  0.0000
  o =  0.9926  v =  0.0000  0.0000  1.0000  0.0000  0.0000  0.0000  0.0000  0.0000  0.0000  0.0000      0.0000  0.0000  0.0000  0.0000  0.0000  0.0000  0.0000  0.0000  0.0000  0.0000
  o =  0.9926  v =  0.0000  0.0000  0.0000  1.0000  0.0000  0.0000  0.0000  0.0000  0.0000  0.0000      0.0000  0.0000  0.0000  0.0000  0.0000  0.0000  0.0000  0.0000  0.0000  0.0000
  o =  0.9926  v =  0.0000  0.0000  0.0000  0.0000  1.0000  0.0000  0.0000  0.0000  0.0000  0.0000      0.0000  0.0000  0.0000  0.0000  0.0000  0.0000  0.0000  0.0000  0.0000  0.0000
  o =  0.9926  v =  0.0000  0.0000  0.0000  0.0000  0.0000  1.0000  0.0000  0.0000  0.0000  0.0000      0.0000  0.0000  0.0000  0.0000  0.0000  0.0000  0.0000  0.0000  0.0000  0.0000
  o =  0.9926  v =  0.0000  0.0000  0.0000  0.0000  0.0000  0.0000  1.0000  0.0000  0.0000  0.0000      0.0000  0.0000  0.0000  0.0000  0.0000  0.0000  0.0000  0.0000  0.0000  0.0000
  o =  0.9926  v =  0.0000  0.0000  0.0000  0.0000  0.0000  0.0000  0.0000  1.0000  0.0000  0.0000      0.0000  0.0000  0.0000  0.0000  0.0000  0.0000  0.0000  0.0000  0.0000  0.0000
  o =  0.9926  v =  0.0000  0.0000  0.0000  0.0000  0.0000  0.0000  0.0000  0.0000  1.0000  0.0000      0.0000  0.0000  0.0000  0.0000  0.0000  0.0000  0.0000  0.0000  0.0000  0.0000
  o =  0.9926  v =  0.0000  0.0000  0.0000  0.0000  0.0000  0.0000  0.0000  0.0000  0.0000  1.0000      0.0000  0.0000  0.0000  0.0000  0.0000  0.0000  0.0000  0.0000  0.0000  0.0000
atom =  43  type =  2  l = 2
 
 onsite density matrix
 
spin component  1
 
  0.9926  0.0000  0.0000  0.0000  0.0000
  0.0000  0.9926  0.0000  0.0000  0.0000
  0.0000  0.0000  0.9926  0.0000  0.0000
  0.0000  0.0000  0.0000  0.9926  0.0000
  0.0000  0.0000  0.0000  0.0000  0.9926
 
spin component  2
 
  0.9926  0.0000  0.0000  0.0000  0.0000
  0.0000  0.9926  0.0000  0.0000  0.0000
  0.0000  0.0000  0.9926  0.0000  0.0000
  0.0000  0.0000  0.0000  0.9926  0.0000
  0.0000  0.0000  0.0000  0.0000  0.9926
 
 occupancies and eigenvectors
 
  o =  0.9926  v =  1.0000  0.0000  0.0000  0.0000  0.0000  0.0000  0.0000  0.0000  0.0000  0.0000      0.0000  0.0000  0.0000  0.0000  0.0000  0.0000  0.0000  0.0000  0.0000  0.0000
  o =  0.9926  v =  0.0000  1.0000  0.0000  0.0000  0.0000  0.0000  0.0000  0.0000  0.0000  0.0000      0.0000  0.0000  0.0000  0.0000  0.0000  0.0000  0.0000  0.0000  0.0000  0.0000
  o =  0.9926  v =  0.0000  0.0000  1.0000  0.0000  0.0000  0.0000  0.0000  0.0000  0.0000  0.0000      0.0000  0.0000  0.0000  0.0000  0.0000  0.0000  0.0000  0.0000  0.0000  0.0000
  o =  0.9926  v =  0.0000  0.0000  0.0000  1.0000  0.0000  0.0000  0.0000  0.0000  0.0000  0.0000      0.0000  0.0000  0.0000  0.0000  0.0000  0.0000  0.0000  0.0000  0.0000  0.0000
  o =  0.9926  v =  0.0000  0.0000  0.0000  0.0000  1.0000  0.0000  0.0000  0.0000  0.0000  0.0000      0.0000  0.0000  0.0000  0.0000  0.0000  0.0000  0.0000  0.0000  0.0000  0.0000
  o =  0.9926  v =  0.0000  0.0000  0.0000  0.0000  0.0000  1.0000  0.0000  0.0000  0.0000  0.0000      0.0000  0.0000  0.0000  0.0000  0.0000  0.0000  0.0000  0.0000  0.0000  0.0000
  o =  0.9926  v =  0.0000  0.0000  0.0000  0.0000  0.0000  0.0000  1.0000  0.0000  0.0000  0.0000      0.0000  0.0000  0.0000  0.0000  0.0000  0.0000  0.0000  0.0000  0.0000  0.0000
  o =  0.9926  v =  0.0000  0.0000  0.0000  0.0000  0.0000  0.0000  0.0000  1.0000  0.0000  0.0000      0.0000  0.0000  0.0000  0.0000  0.0000  0.0000  0.0000  0.0000  0.0000  0.0000
  o =  0.9926  v =  0.0000  0.0000  0.0000  0.0000  0.0000  0.0000  0.0000  0.0000  1.0000  0.0000      0.0000  0.0000  0.0000  0.0000  0.0000  0.0000  0.0000  0.0000  0.0000  0.0000
  o =  0.9926  v =  0.0000  0.0000  0.0000  0.0000  0.0000  0.0000  0.0000  0.0000  0.0000  1.0000      0.0000  0.0000  0.0000  0.0000  0.0000  0.0000  0.0000  0.0000  0.0000  0.0000
atom =  44  type =  2  l = 2
 
 onsite density matrix
 
spin component  1
 
  0.9926  0.0000  0.0000  0.0000  0.0000
  0.0000  0.9926  0.0000  0.0000  0.0000
  0.0000  0.0000  0.9926  0.0000  0.0000
  0.0000  0.0000  0.0000  0.9926  0.0000
  0.0000  0.0000  0.0000  0.0000  0.9926
 
spin component  2
 
  0.9926  0.0000  0.0000  0.0000  0.0000
  0.0000  0.9926  0.0000  0.0000  0.0000
  0.0000  0.0000  0.9926  0.0000  0.0000
  0.0000  0.0000  0.0000  0.9926  0.0000
  0.0000  0.0000  0.0000  0.0000  0.9926
 
 occupancies and eigenvectors
 
  o =  0.9926  v =  1.0000  0.0000  0.0000  0.0000  0.0000  0.0000  0.0000  0.0000  0.0000  0.0000      0.0000  0.0000  0.0000  0.0000  0.0000  0.0000  0.0000  0.0000  0.0000  0.0000
  o =  0.9926  v =  0.0000  1.0000  0.0000  0.0000  0.0000  0.0000  0.0000  0.0000  0.0000  0.0000      0.0000  0.0000  0.0000  0.0000  0.0000  0.0000  0.0000  0.0000  0.0000  0.0000
  o =  0.9926  v =  0.0000  0.0000  1.0000  0.0000  0.0000  0.0000  0.0000  0.0000  0.0000  0.0000      0.0000  0.0000  0.0000  0.0000  0.0000  0.0000  0.0000  0.0000  0.0000  0.0000
  o =  0.9926  v =  0.0000  0.0000  0.0000  1.0000  0.0000  0.0000  0.0000  0.0000  0.0000  0.0000      0.0000  0.0000  0.0000  0.0000  0.0000  0.0000  0.0000  0.0000  0.0000  0.0000
  o =  0.9926  v =  0.0000  0.0000  0.0000  0.0000  1.0000  0.0000  0.0000  0.0000  0.0000  0.0000      0.0000  0.0000  0.0000  0.0000  0.0000  0.0000  0.0000  0.0000  0.0000  0.0000
  o =  0.9926  v =  0.0000  0.0000  0.0000  0.0000  0.0000  1.0000  0.0000  0.0000  0.0000  0.0000      0.0000  0.0000  0.0000  0.0000  0.0000  0.0000  0.0000  0.0000  0.0000  0.0000
  o =  0.9926  v =  0.0000  0.0000  0.0000  0.0000  0.0000  0.0000  1.0000  0.0000  0.0000  0.0000      0.0000  0.0000  0.0000  0.0000  0.0000  0.0000  0.0000  0.0000  0.0000  0.0000
  o =  0.9926  v =  0.0000  0.0000  0.0000  0.0000  0.0000  0.0000  0.0000  1.0000  0.0000  0.0000      0.0000  0.0000  0.0000  0.0000  0.0000  0.0000  0.0000  0.0000  0.0000  0.0000
  o =  0.9926  v =  0.0000  0.0000  0.0000  0.0000  0.0000  0.0000  0.0000  0.0000  1.0000  0.0000      0.0000  0.0000  0.0000  0.0000  0.0000  0.0000  0.0000  0.0000  0.0000  0.0000
  o =  0.9926  v =  0.0000  0.0000  0.0000  0.0000  0.0000  0.0000  0.0000  0.0000  0.0000  1.0000      0.0000  0.0000  0.0000  0.0000  0.0000  0.0000  0.0000  0.0000  0.0000  0.0000
atom =  45  type =  2  l = 2
 
 onsite density matrix
 
spin component  1
 
  0.9926  0.0000  0.0000  0.0000  0.0000
  0.0000  0.9926  0.0000  0.0000  0.0000
  0.0000  0.0000  0.9926  0.0000  0.0000
  0.0000  0.0000  0.0000  0.9926  0.0000
  0.0000  0.0000  0.0000  0.0000  0.9926
 
spin component  2
 
  0.9926  0.0000  0.0000  0.0000  0.0000
  0.0000  0.9926  0.0000  0.0000  0.0000
  0.0000  0.0000  0.9926  0.0000  0.0000
  0.0000  0.0000  0.0000  0.9926  0.0000
  0.0000  0.0000  0.0000  0.0000  0.9926
 
 occupancies and eigenvectors
 
  o =  0.9926  v =  1.0000  0.0000  0.0000  0.0000  0.0000  0.0000  0.0000  0.0000  0.0000  0.0000      0.0000  0.0000  0.0000  0.0000  0.0000  0.0000  0.0000  0.0000  0.0000  0.0000
  o =  0.9926  v =  0.0000  1.0000  0.0000  0.0000  0.0000  0.0000  0.0000  0.0000  0.0000  0.0000      0.0000  0.0000  0.0000  0.0000  0.0000  0.0000  0.0000  0.0000  0.0000  0.0000
  o =  0.9926  v =  0.0000  0.0000  1.0000  0.0000  0.0000  0.0000  0.0000  0.0000  0.0000  0.0000      0.0000  0.0000  0.0000  0.0000  0.0000  0.0000  0.0000  0.0000  0.0000  0.0000
  o =  0.9926  v =  0.0000  0.0000  0.0000  1.0000  0.0000  0.0000  0.0000  0.0000  0.0000  0.0000      0.0000  0.0000  0.0000  0.0000  0.0000  0.0000  0.0000  0.0000  0.0000  0.0000
  o =  0.9926  v =  0.0000  0.0000  0.0000  0.0000  1.0000  0.0000  0.0000  0.0000  0.0000  0.0000      0.0000  0.0000  0.0000  0.0000  0.0000  0.0000  0.0000  0.0000  0.0000  0.0000
  o =  0.9926  v =  0.0000  0.0000  0.0000  0.0000  0.0000  1.0000  0.0000  0.0000  0.0000  0.0000      0.0000  0.0000  0.0000  0.0000  0.0000  0.0000  0.0000  0.0000  0.0000  0.0000
  o =  0.9926  v =  0.0000  0.0000  0.0000  0.0000  0.0000  0.0000  1.0000  0.0000  0.0000  0.0000      0.0000  0.0000  0.0000  0.0000  0.0000  0.0000  0.0000  0.0000  0.0000  0.0000
  o =  0.9926  v =  0.0000  0.0000  0.0000  0.0000  0.0000  0.0000  0.0000  1.0000  0.0000  0.0000      0.0000  0.0000  0.0000  0.0000  0.0000  0.0000  0.0000  0.0000  0.0000  0.0000
  o =  0.9926  v =  0.0000  0.0000  0.0000  0.0000  0.0000  0.0000  0.0000  0.0000  1.0000  0.0000      0.0000  0.0000  0.0000  0.0000  0.0000  0.0000  0.0000  0.0000  0.0000  0.0000
  o =  0.9926  v =  0.0000  0.0000  0.0000  0.0000  0.0000  0.0000  0.0000  0.0000  0.0000  1.0000      0.0000  0.0000  0.0000  0.0000  0.0000  0.0000  0.0000  0.0000  0.0000  0.0000
atom =  46  type =  2  l = 2
 
 onsite density matrix
 
spin component  1
 
  0.9926  0.0000  0.0000  0.0000  0.0000
  0.0000  0.9926  0.0000  0.0000  0.0000
  0.0000  0.0000  0.9926  0.0000  0.0000
  0.0000  0.0000  0.0000  0.9926  0.0000
  0.0000  0.0000  0.0000  0.0000  0.9926
 
spin component  2
 
  0.9926  0.0000  0.0000  0.0000  0.0000
  0.0000  0.9926  0.0000  0.0000  0.0000
  0.0000  0.0000  0.9926  0.0000  0.0000
  0.0000  0.0000  0.0000  0.9926  0.0000
  0.0000  0.0000  0.0000  0.0000  0.9926
 
 occupancies and eigenvectors
 
  o =  0.9926  v =  1.0000  0.0000  0.0000  0.0000  0.0000  0.0000  0.0000  0.0000  0.0000  0.0000      0.0000  0.0000  0.0000  0.0000  0.0000  0.0000  0.0000  0.0000  0.0000  0.0000
  o =  0.9926  v =  0.0000  1.0000  0.0000  0.0000  0.0000  0.0000  0.0000  0.0000  0.0000  0.0000      0.0000  0.0000  0.0000  0.0000  0.0000  0.0000  0.0000  0.0000  0.0000  0.0000
  o =  0.9926  v =  0.0000  0.0000  1.0000  0.0000  0.0000  0.0000  0.0000  0.0000  0.0000  0.0000      0.0000  0.0000  0.0000  0.0000  0.0000  0.0000  0.0000  0.0000  0.0000  0.0000
  o =  0.9926  v =  0.0000  0.0000  0.0000  1.0000  0.0000  0.0000  0.0000  0.0000  0.0000  0.0000      0.0000  0.0000  0.0000  0.0000  0.0000  0.0000  0.0000  0.0000  0.0000  0.0000
  o =  0.9926  v =  0.0000  0.0000  0.0000  0.0000  1.0000  0.0000  0.0000  0.0000  0.0000  0.0000      0.0000  0.0000  0.0000  0.0000  0.0000  0.0000  0.0000  0.0000  0.0000  0.0000
  o =  0.9926  v =  0.0000  0.0000  0.0000  0.0000  0.0000  1.0000  0.0000  0.0000  0.0000  0.0000      0.0000  0.0000  0.0000  0.0000  0.0000  0.0000  0.0000  0.0000  0.0000  0.0000
  o =  0.9926  v =  0.0000  0.0000  0.0000  0.0000  0.0000  0.0000  1.0000  0.0000  0.0000  0.0000      0.0000  0.0000  0.0000  0.0000  0.0000  0.0000  0.0000  0.0000  0.0000  0.0000
  o =  0.9926  v =  0.0000  0.0000  0.0000  0.0000  0.0000  0.0000  0.0000  1.0000  0.0000  0.0000      0.0000  0.0000  0.0000  0.0000  0.0000  0.0000  0.0000  0.0000  0.0000  0.0000
  o =  0.9926  v =  0.0000  0.0000  0.0000  0.0000  0.0000  0.0000  0.0000  0.0000  1.0000  0.0000      0.0000  0.0000  0.0000  0.0000  0.0000  0.0000  0.0000  0.0000  0.0000  0.0000
  o =  0.9926  v =  0.0000  0.0000  0.0000  0.0000  0.0000  0.0000  0.0000  0.0000  0.0000  1.0000      0.0000  0.0000  0.0000  0.0000  0.0000  0.0000  0.0000  0.0000  0.0000  0.0000
atom =  47  type =  2  l = 2
 
 onsite density matrix
 
spin component  1
 
  0.9926  0.0000  0.0000  0.0000  0.0000
  0.0000  0.9926  0.0000  0.0000  0.0000
  0.0000  0.0000  0.9926  0.0000  0.0000
  0.0000  0.0000  0.0000  0.9926  0.0000
  0.0000  0.0000  0.0000  0.0000  0.9926
 
spin component  2
 
  0.9926  0.0000  0.0000  0.0000  0.0000
  0.0000  0.9926  0.0000  0.0000  0.0000
  0.0000  0.0000  0.9926  0.0000  0.0000
  0.0000  0.0000  0.0000  0.9926  0.0000
  0.0000  0.0000  0.0000  0.0000  0.9926
 
 occupancies and eigenvectors
 
  o =  0.9926  v =  1.0000  0.0000  0.0000  0.0000  0.0000  0.0000  0.0000  0.0000  0.0000  0.0000      0.0000  0.0000  0.0000  0.0000  0.0000  0.0000  0.0000  0.0000  0.0000  0.0000
  o =  0.9926  v =  0.0000  1.0000  0.0000  0.0000  0.0000  0.0000  0.0000  0.0000  0.0000  0.0000      0.0000  0.0000  0.0000  0.0000  0.0000  0.0000  0.0000  0.0000  0.0000  0.0000
  o =  0.9926  v =  0.0000  0.0000  1.0000  0.0000  0.0000  0.0000  0.0000  0.0000  0.0000  0.0000      0.0000  0.0000  0.0000  0.0000  0.0000  0.0000  0.0000  0.0000  0.0000  0.0000
  o =  0.9926  v =  0.0000  0.0000  0.0000  1.0000  0.0000  0.0000  0.0000  0.0000  0.0000  0.0000      0.0000  0.0000  0.0000  0.0000  0.0000  0.0000  0.0000  0.0000  0.0000  0.0000
  o =  0.9926  v =  0.0000  0.0000  0.0000  0.0000  1.0000  0.0000  0.0000  0.0000  0.0000  0.0000      0.0000  0.0000  0.0000  0.0000  0.0000  0.0000  0.0000  0.0000  0.0000  0.0000
  o =  0.9926  v =  0.0000  0.0000  0.0000  0.0000  0.0000  1.0000  0.0000  0.0000  0.0000  0.0000      0.0000  0.0000  0.0000  0.0000  0.0000  0.0000  0.0000  0.0000  0.0000  0.0000
  o =  0.9926  v =  0.0000  0.0000  0.0000  0.0000  0.0000  0.0000  1.0000  0.0000  0.0000  0.0000      0.0000  0.0000  0.0000  0.0000  0.0000  0.0000  0.0000  0.0000  0.0000  0.0000
  o =  0.9926  v =  0.0000  0.0000  0.0000  0.0000  0.0000  0.0000  0.0000  1.0000  0.0000  0.0000      0.0000  0.0000  0.0000  0.0000  0.0000  0.0000  0.0000  0.0000  0.0000  0.0000
  o =  0.9926  v =  0.0000  0.0000  0.0000  0.0000  0.0000  0.0000  0.0000  0.0000  1.0000  0.0000      0.0000  0.0000  0.0000  0.0000  0.0000  0.0000  0.0000  0.0000  0.0000  0.0000
  o =  0.9926  v =  0.0000  0.0000  0.0000  0.0000  0.0000  0.0000  0.0000  0.0000  0.0000  1.0000      0.0000  0.0000  0.0000  0.0000  0.0000  0.0000  0.0000  0.0000  0.0000  0.0000
    EDDIAG:  cpu time   36.1895: real time   36.2079
  RMM-DIIS:  cpu time    7.8208: real time    7.8287
    ORTHCH:  cpu time    4.7173: real time    4.7202
       DOS:  cpu time    0.0040: real time    0.0045
    --------------------------------------------
      LOOP:  cpu time   49.5595: real time   49.5939

 eigenvalue-minimisations  :  1952
 total energy-change (2. order) :-0.3488131E+03  (-0.2949306E+02)
 number of electron     402.0000000 magnetization 
 augmentation part      402.0000000 magnetization 

 Free energy of the ion-electron system (eV)
  ---------------------------------------------------
  alpha Z        PSCENC =      1390.87733343
  Ewald energy   TEWEN  =    -31197.56794665
  -Hartree energ DENC   =    -11206.64458329
  -exchange      EXHF   =         0.00000000
  -V(xc)+E(xc)   XCENC  =      1761.64542050
  PAW double counting   =     34622.81385408   -34943.27019848
  entropy T*S    EENTRO =        -0.10083475
  eigenvalues    EBANDS =     -3008.44436718
  atomic energy  EATOM  =     42231.87821999
  Solvation  Ediel_sol  =         0.00000000
  ---------------------------------------------------
  free energy    TOTEN  =      -348.81310235 eV

  energy without entropy =     -348.71226760  energy(sigma->0) =     -348.76268498


--------------------------------------------------------------------------------------------------------




----------------------------------------- Iteration    1(   2)  ---------------------------------------


    EDDIAG:  cpu time   36.4865: real time   36.5384
  RMM-DIIS:  cpu time    6.7870: real time    6.8006
    ORTHCH:  cpu time    2.3566: real time    2.3578
       DOS:  cpu time    0.0040: real time    0.0041
    --------------------------------------------
      LOOP:  cpu time   45.6921: real time   45.7690

 eigenvalue-minimisations  :  1952
 total energy-change (2. order) :-0.2543027E+03  (-0.3070531E+03)
 number of electron     402.0000000 magnetization 
 augmentation part      402.0000000 magnetization 

 Free energy of the ion-electron system (eV)
  ---------------------------------------------------
  alpha Z        PSCENC =      1390.87733343
  Ewald energy   TEWEN  =    -31197.56794665
  -Hartree energ DENC   =    -11206.64458329
  -exchange      EXHF   =         0.00000000
  -V(xc)+E(xc)   XCENC  =      1761.64542050
  PAW double counting   =     34622.81385408   -34943.27019848
  entropy T*S    EENTRO =        -0.04420291
  eigenvalues    EBANDS =     -3262.80370336
  atomic energy  EATOM  =     42231.87821999
  Solvation  Ediel_sol  =         0.00000000
  ---------------------------------------------------
  free energy    TOTEN  =      -603.11580670 eV

  energy without entropy =     -603.07160379  energy(sigma->0) =     -603.09370525


--------------------------------------------------------------------------------------------------------




----------------------------------------- Iteration    1(   3)  ---------------------------------------


    EDDIAG:  cpu time   11.8532: real time   12.7062
  RMM-DIIS:  cpu time    6.1471: real time    6.3223
    ORTHCH:  cpu time    1.7877: real time    1.7898
       DOS:  cpu time    0.0040: real time    0.0044
    --------------------------------------------
      LOOP:  cpu time   19.8510: real time   20.9409

 eigenvalue-minimisations  :  1952
 total energy-change (2. order) :-0.6890628E+01  (-0.9809400E+03)
 number of electron     402.0000000 magnetization 
 augmentation part      402.0000000 magnetization 

 Free energy of the ion-electron system (eV)
  ---------------------------------------------------
  alpha Z        PSCENC =      1390.87733343
  Ewald energy   TEWEN  =    -31197.56794665
  -Hartree energ DENC   =    -11206.64458329
  -exchange      EXHF   =         0.00000000
  -V(xc)+E(xc)   XCENC  =      1761.64542050
  PAW double counting   =     34622.81385408   -34943.27019848
  entropy T*S    EENTRO =        -0.05288178
  eigenvalues    EBANDS =     -3269.68565293
  atomic energy  EATOM  =     42231.87821999
  Solvation  Ediel_sol  =         0.00000000
  ---------------------------------------------------
  free energy    TOTEN  =      -610.00643513 eV

  energy without entropy =     -609.95355335  energy(sigma->0) =     -609.97999424


--------------------------------------------------------------------------------------------------------




----------------------------------------- Iteration    1(   4)  ---------------------------------------


    EDDIAG:  cpu time   39.0601: real time   39.1110
  RMM-DIIS:  cpu time   16.5195: real time   16.5635
    ORTHCH:  cpu time    4.7723: real time    4.7761
       DOS:  cpu time    0.0040: real time    0.0040
    --------------------------------------------
      LOOP:  cpu time   60.3778: real time   60.4902

 eigenvalue-minimisations  :  4819
 total energy-change (2. order) : 0.3986592E+03  (-0.8185558E+03)
 number of electron     402.0000000 magnetization 
 augmentation part      402.0000000 magnetization 

 Free energy of the ion-electron system (eV)
  ---------------------------------------------------
  alpha Z        PSCENC =      1390.87733343
  Ewald energy   TEWEN  =    -31197.56794665
  -Hartree energ DENC   =    -11206.64458329
  -exchange      EXHF   =         0.00000000
  -V(xc)+E(xc)   XCENC  =      1761.64542050
  PAW double counting   =     34622.81385408   -34943.27019848
  entropy T*S    EENTRO =        -0.01311041
  eigenvalues    EBANDS =     -2871.06624812
  atomic energy  EATOM  =     42231.87821999
  Solvation  Ediel_sol  =         0.00000000
  ---------------------------------------------------
  free energy    TOTEN  =      -211.34725896 eV

  energy without entropy =     -211.33414854  energy(sigma->0) =     -211.34070375


--------------------------------------------------------------------------------------------------------




----------------------------------------- Iteration    1(   5)  ---------------------------------------


    EDDIAG:  cpu time   39.6840: real time   41.1733
  RMM-DIIS:  cpu time   15.3367: real time   16.9518
    ORTHCH:  cpu time    4.4073: real time    5.0075
       DOS:  cpu time    0.0040: real time    0.0138
    CHARGE:  cpu time    1.0238: real time    1.0775
    MIXING:  cpu time    0.1300: real time    0.1291
    --------------------------------------------
      LOOP:  cpu time   60.6438: real time   64.4561

 eigenvalue-minimisations  :  4992
 total energy-change (2. order) :-0.9212373E+02  (-0.7601459E+02)
 number of electron     402.0000133 magnetization 
 augmentation part      138.0046004 magnetization 

 Broyden mixing:
  rms(total) = 0.39195E+01    rms(broyden)= 0.39186E+01
  rms(prec ) = 0.50674E+01
  weight for this iteration     100.00

 Free energy of the ion-electron system (eV)
  ---------------------------------------------------
  alpha Z        PSCENC =      1390.87733343
  Ewald energy   TEWEN  =    -31197.56794665
  -Hartree energ DENC   =    -11206.64458329
  -exchange      EXHF   =         0.00000000
  -V(xc)+E(xc)   XCENC  =      1761.64542050
  PAW double counting   =     34622.81385408   -34943.27019848
  entropy T*S    EENTRO =        -0.01257533
  eigenvalues    EBANDS =     -2963.19051113
  atomic energy  EATOM  =     42231.87821999
  Solvation  Ediel_sol  =         0.00000000
  ---------------------------------------------------
  free energy    TOTEN  =      -303.47098689 eV

  energy without entropy =     -303.45841156  energy(sigma->0) =     -303.46469922


--------------------------------------------------------------------------------------------------------




----------------------------------------- Iteration    1(   6)  ---------------------------------------


    POTLOK:  cpu time    0.6629: real time    0.6629
    SETDIJ:  cpu time    0.1390: real time    0.1390
atom =  33  type =  2  l = 2
 
 onsite density matrix
 
spin component  1
 
  1.0221  0.0000 -0.0159  0.0000  0.0000
  0.0000  1.0187  0.0000 -0.0159  0.0000
 -0.0159  0.0000  1.0130  0.0000  0.0000
  0.0000 -0.0159  0.0000  1.0187  0.0000
  0.0000  0.0000  0.0000  0.0000  1.0018
 
spin component  2
 
  1.0221  0.0000 -0.0159  0.0000  0.0000
  0.0000  1.0187  0.0000 -0.0159  0.0000
 -0.0159  0.0000  1.0130  0.0000  0.0000
  0.0000 -0.0159  0.0000  1.0187  0.0000
  0.0000  0.0000  0.0000  0.0000  1.0018
 
 occupancies and eigenvectors
 
  o =  1.0009  v = -0.6023  0.0000 -0.7983  0.0000  0.0000  0.0000  0.0000  0.0000  0.0000  0.0000      0.0000  0.0000  0.0000  0.0000  0.0000  0.0000  0.0000  0.0000  0.0000  0.0000
  o =  1.0009  v =  0.0000  0.0000  0.0000  0.0000  0.0000 -0.6023  0.0000 -0.7983  0.0000  0.0000      0.0000  0.0000  0.0000  0.0000  0.0000  0.0000  0.0000  0.0000  0.0000  0.0000
  o =  1.0018  v =  0.0000  0.0000  0.0000  0.0000  1.0000  0.0000  0.0000  0.0000  0.0000  0.0000      0.0000  0.0000  0.0000  0.0000  0.0000  0.0000  0.0000  0.0000  0.0000  0.0000
[...]
    160       3.3153      2.00000
    161       3.3333      2.00000
    162       3.4085      2.00000
    163       3.5290      2.00000
    164       3.5982      2.00000
    165       3.6718      2.00000
    166       3.7130      2.00000
    167       3.7421      2.00000
    168       3.7540      2.00000
    169       3.8381      2.00000
    170       3.8762      2.00000
    171       3.9118      2.00000
    172       3.9137      2.00000
    173       3.9579      2.00000
    174       4.0164      2.00000
    175       4.0438      2.00000
    176       4.1465      2.00000
    177       4.1684      2.00000
    178       4.1900      2.00000
    179       4.2652      2.00000
    180       4.2826      2.00000
    181       4.3277      2.00000
    182       4.3880      2.00000
    183       4.4455      2.00000
    184       4.4833      2.00000
    185       4.5537      2.00000
    186       4.5552      2.00000
    187       4.6305      2.00000
    188       4.6410      2.00000
    189       4.6579      2.00000
    190       4.7068      2.00000
    191       4.7070      2.00000
    192       4.7713      2.00000
    193       4.7832      2.00000
    194       4.8709      2.00000
    195       4.8858      2.00000
    196       4.9716      1.99993
    197       5.0598      1.99384
    198       5.0603      1.99370
    199       5.1534      1.84309
    200       5.1913      1.62093
    201       5.2160      1.40409
    202       5.3082      0.43902
    203       5.3257      0.30707
    204       9.5945      0.00000
    205      10.2207      0.00000
    206      10.3058      0.00000
    207      10.6922      0.00000
    208      10.8305      0.00000
    209      11.0516      0.00000
    210      11.1072      0.00000
    211      11.4046      0.00000
    212      11.5922      0.00000
    213      11.7584      0.00000
    214      11.7949      0.00000
    215      12.2018      0.00000
    216      12.2109      0.00000
    217      12.8315      0.00000
    218      12.8677      0.00000
    219      13.7034      0.00000
    220      13.8379      0.00000
    221      13.9321      0.00000
    222      14.0067      0.00000
    223      14.1056      0.00000
    224      14.1990      0.00000
    225      14.2884      0.00000
    226      14.4806      0.00000
    227      14.6991      0.00000
    228      14.7301      0.00000
    229      14.7213      0.00000
    230      14.9537      0.00000
    231      15.0866      0.00000
    232      15.1202      0.00000
    233      15.1682      0.00000
    234      15.2989      0.00000
    235      15.3170      0.00000
    236      15.3838      0.00000
    237      15.4711      0.00000
    238      15.5006      0.00000
    239      15.7023      0.00000
    240      15.7139      0.00000
    241      16.0578      0.00000
    242      16.8180      0.00000
    243      16.9246      0.00000
    244      17.0743      0.00000


--------------------------------------------------------------------------------------------------------


 soft charge-density along one line, spin component           1
         0         1         2         3         4         5         6         7         8         9
 total charge-density along one line
 
 pseudopotential strength for first ion, spin component:           1
 11.885 -14.439   0.014   0.033  -0.014  -0.018  -0.042   0.018
-14.439  17.558  -0.018  -0.042   0.018   0.023   0.053  -0.023
  0.014  -0.018  -7.948   0.015   0.036   9.443  -0.020  -0.048
  0.033  -0.042   0.015  -7.958  -0.015  -0.020   9.457   0.020
 -0.014   0.018   0.036  -0.015  -7.948  -0.048   0.020   9.443
 -0.018   0.023   9.443  -0.020  -0.048 -11.040   0.027   0.064
 -0.042   0.053  -0.020   9.457   0.020   0.027 -11.059  -0.027
  0.018  -0.023  -0.048   0.020   9.443   0.064  -0.027 -11.040
 total augmentation occupancy for first ion, spin component:           1
  2.524   0.311  -0.042  -0.116   0.042  -0.016  -0.044   0.016
  0.311   0.077  -0.046  -0.113   0.046  -0.008  -0.020   0.008
 -0.042  -0.046   2.000  -0.087  -0.107   0.206  -0.040  -0.067
 -0.116  -0.113  -0.087   1.868   0.087  -0.040   0.179   0.040
  0.042   0.046  -0.107   0.087   2.000  -0.067   0.040   0.206
 -0.016  -0.008   0.206  -0.040  -0.067   0.030  -0.010  -0.017
 -0.044  -0.020  -0.040   0.179   0.040  -0.010   0.024   0.010
  0.016   0.008  -0.067   0.040   0.206  -0.017   0.010   0.030


------------------------ aborting loop because EDIFF is reached ----------------------------------------


    CHARGE:  cpu time    1.0678: real time    1.0686
    FORLOC:  cpu time    0.0380: real time    0.0379
    FORNL :  cpu time   16.3825: real time   16.3908
    STRESS:  cpu time   15.3567: real time   15.3708
    FORCOR:  cpu time    0.5429: real time    0.5428
    FORHAR:  cpu time    0.1650: real time    0.1652
    MIXING:  cpu time    0.1910: real time    0.1920
    OFIELD:  cpu time    0.0010: real time    0.0000

  FORCE on cell =-STRESS in cart. coord.  units (eV):
  Direction    XX          YY          ZZ          XY          YZ          ZX
  --------------------------------------------------------------------------------------
  Alpha Z  1390.87733  1390.87733  1390.87733
  Ewald  -11996.07149-11996.07149 -7206.79729  -168.96486     0.00000     0.00000
  Hartree  2913.65705  2913.65705  5674.27687   -84.57544     0.00000     0.00000
  E(xc)   -2043.81410 -2043.81410 -2039.05849    -0.31954     0.00000     0.00000
  Local     980.86162   980.86162 -6445.04005   248.91461     0.00000     0.00000
  n-local    51.31861    51.36294   120.58673    -6.75031    -0.24580    -0.18773
  augment  2991.66848  2991.66848  2968.26021     1.69653     0.00000     0.00000
  Kinetic  5717.52245  5717.51848  5538.09847     8.81655     1.04192     0.87155
  Fock        0.00000     0.00000     0.00000     0.00000     0.00000     0.00000
  -------------------------------------------------------------------------------------
  Total       6.04014     6.04014     1.20377    -1.18272     0.00000     0.00000
  in kB      17.25071    17.25071     3.43799    -3.37786     0.00000     0.00000
  external pressure =       12.65 kB  Pullay stress =        0.00 kB


 VOLUME and BASIS-vectors are now :
 -----------------------------------------------------------------------------
  energy-cutoff  :      480.00
  volume of cell :      560.98
      direct lattice vectors                 reciprocal lattice vectors
     9.432027167  0.000000000  0.000000000     0.106021747  0.000000000  0.000000000
     0.000000000  9.432027167  0.000000000     0.000000000  0.106021747  0.000000000
     0.000000000  0.000000000  6.305806843     0.000000000  0.000000000  0.158583989

  length of vectors
     9.432027167  9.432027167  6.305806843     0.106021747  0.106021747  0.158583989


 FORCES acting on ions
    electron-ion (+dipol)            ewald-force                    non-local-force                 convergence-correction
 -----------------------------------------------------------------------------------------------
   0.953E+02 -.953E+02 -.193E+03   -.101E+03 0.101E+03 0.207E+03   0.583E+01 -.583E+01 -.136E+02   0.320E-02 -.320E-02 -.436E-02
   0.501E+02 -.501E+02 -.406E+01   -.527E+02 0.527E+02 0.425E+01   0.257E+01 -.257E+01 -.187E+00   -.544E-02 0.544E-02 0.347E-02
   0.213E+02 -.805E+02 -.118E+02   -.245E+02 0.833E+02 0.118E+02   0.321E+01 -.280E+01 0.318E-01   0.188E-02 -.462E-02 -.153E-02
   -.341E+02 0.772E+02 0.404E-06   0.316E+02 -.794E+02 0.286E-16   0.251E+01 0.222E+01 0.000E+00   0.993E-02 -.685E-03 0.652E-11
   -.772E+02 0.341E+02 -.404E-06   0.794E+02 -.316E+02 -.286E-16   -.222E+01 -.251E+01 0.000E+00   0.685E-03 -.993E-02 0.820E-12
   -.953E+02 0.953E+02 0.193E+03   0.101E+03 -.101E+03 -.207E+03   -.583E+01 0.583E+01 0.136E+02   -.320E-02 0.320E-02 0.436E-02
   -.501E+02 0.501E+02 0.406E+01   0.527E+02 -.527E+02 -.425E+01   -.257E+01 0.257E+01 0.187E+00   0.544E-02 -.544E-02 -.347E-02
   0.589E+01 0.515E+02 -.597E-05   -.834E+01 -.519E+02 -.311E-14   0.240E+01 0.484E+00 0.434E-18   0.220E-01 -.912E-02 -.167E-11
   -.589E+01 -.515E+02 0.597E-05   0.834E+01 0.519E+02 0.339E-13   -.240E+01 -.484E+00 0.434E-18   -.220E-01 0.912E-02 0.247E-11
   -.515E+02 -.589E+01 0.597E-05   0.519E+02 0.834E+01 -.783E-15   -.484E+00 -.240E+01 -.651E-18   0.912E-02 -.220E-01 0.139E-11
   -.501E+02 0.501E+02 -.406E+01   0.527E+02 -.527E+02 0.425E+01   -.257E+01 0.257E+01 -.187E+00   0.544E-02 -.544E-02 0.347E-02
   0.611E+00 0.611E+00 0.413E-05   -.120E+01 -.120E+01 -.606E-13   0.606E+00 0.606E+00 0.000E+00   -.119E-01 -.119E-01 0.203E-11
   -.248E+03 -.248E+03 0.322E-05   0.267E+03 0.267E+03 0.301E-13   -.191E+02 -.191E+02 0.000E+00   0.202E-01 0.202E-01 -.104E-11
   0.213E+02 -.805E+02 0.118E+02   -.245E+02 0.833E+02 -.118E+02   0.321E+01 -.280E+01 -.318E-01   0.188E-02 -.462E-02 0.153E-02
   -.805E+02 0.213E+02 0.118E+02   0.833E+02 -.245E+02 -.118E+02   -.280E+01 0.321E+01 -.318E-01   -.462E-02 0.188E-02 0.153E-02
   0.124E+02 0.124E+02 -.199E-04   -.144E+02 -.144E+02 0.198E-13   0.201E+01 0.201E+01 0.108E-18   0.487E-02 0.487E-02 0.443E-11
   -.921E+02 -.921E+02 -.101E-04   0.960E+02 0.960E+02 -.495E-13   -.392E+01 -.392E+01 0.000E+00   0.788E-02 0.788E-02 0.664E-11
   -.953E+02 0.953E+02 -.193E+03   0.101E+03 -.101E+03 0.207E+03   -.583E+01 0.583E+01 -.136E+02   -.320E-02 0.320E-02 -.436E-02
   0.515E+02 0.589E+01 -.597E-05   -.519E+02 -.834E+01 0.705E-14   0.484E+00 0.240E+01 0.651E-18   -.912E-02 0.220E-01 0.145E-11
   -.805E+02 0.213E+02 -.118E+02   0.833E+02 -.245E+02 0.118E+02   -.280E+01 0.321E+01 0.318E-01   -.462E-02 0.188E-02 -.153E-02
   -.124E+02 -.124E+02 0.199E-04   0.144E+02 0.144E+02 -.503E-14   -.201E+01 -.201E+01 -.108E-18   -.487E-02 -.487E-02 0.260E-11
   0.953E+02 -.953E+02 0.193E+03   -.101E+03 0.101E+03 -.207E+03   0.583E+01 -.583E+01 0.136E+02   0.320E-02 -.320E-02 0.436E-02
   0.501E+02 -.501E+02 0.406E+01   -.527E+02 0.527E+02 -.425E+01   0.257E+01 -.257E+01 0.187E+00   -.544E-02 0.544E-02 -.347E-02
   0.341E+02 -.772E+02 -.404E-06   -.316E+02 0.794E+02 0.844E-14   -.251E+01 -.222E+01 0.000E+00   -.993E-02 0.685E-03 -.432E-11
   0.921E+02 0.921E+02 0.101E-04   -.960E+02 -.960E+02 -.300E-13   0.392E+01 0.392E+01 0.000E+00   -.788E-02 -.788E-02 -.123E-11
   0.248E+03 0.248E+03 -.322E-05   -.267E+03 -.267E+03 0.168E-14   0.191E+02 0.191E+02 0.000E+00   -.202E-01 -.202E-01 0.103E-11
   0.772E+02 -.341E+02 0.404E-06   -.794E+02 0.316E+02 0.623E-14   0.222E+01 0.251E+01 0.000E+00   -.685E-03 0.993E-02 -.195E-11
   -.213E+02 0.805E+02 0.118E+02   0.245E+02 -.833E+02 -.118E+02   -.321E+01 0.280E+01 -.318E-01   -.188E-02 0.462E-02 0.153E-02
   0.805E+02 -.213E+02 -.118E+02   -.833E+02 0.245E+02 0.118E+02   0.280E+01 -.321E+01 0.318E-01   0.462E-02 -.188E-02 -.153E-02
   -.213E+02 0.805E+02 -.118E+02   0.245E+02 -.833E+02 0.118E+02   -.321E+01 0.280E+01 0.318E-01   -.188E-02 0.462E-02 -.153E-02
   -.611E+00 -.611E+00 -.413E-05   0.120E+01 0.120E+01 -.268E-13   -.606E+00 -.606E+00 0.000E+00   0.119E-01 0.119E-01 0.534E-12
   0.805E+02 -.213E+02 0.118E+02   -.833E+02 0.245E+02 -.118E+02   0.280E+01 -.321E+01 -.318E-01   0.462E-02 -.188E-02 0.153E-02
   0.361E-11 -.585E-11 -.363E-12   -.156E-12 -.169E-12 -.309E-13   0.000E+00 0.000E+00 0.000E+00   -.329E-11 0.230E-11 0.247E-11
   -.126E+03 -.126E+03 -.368E+02   0.128E+03 0.128E+03 0.395E+02   -.191E+01 -.191E+01 -.266E+01   -.414E-03 -.414E-03 -.399E-01
   0.126E+03 0.126E+03 0.368E+02   -.128E+03 -.128E+03 -.395E+02   0.191E+01 0.191E+01 0.266E+01   0.414E-03 0.414E-03 0.399E-01
   -.735E-13 -.608E-13 0.110E-11   -.191E-12 -.302E-13 0.105E-12   0.000E+00 0.000E+00 0.000E+00   -.445E-11 -.134E-11 0.758E-13
   -.126E+03 -.126E+03 0.368E+02   0.128E+03 0.128E+03 -.395E+02   -.191E+01 -.191E+01 0.266E+01   -.414E-03 -.414E-03 0.399E-01
   -.123E-12 0.178E-11 0.101E-11   -.106E-12 -.406E-13 0.129E-13   0.000E+00 0.000E+00 0.000E+00   0.527E-12 0.200E-11 -.129E-11
   0.126E+03 0.126E+03 -.368E+02   -.128E+03 -.128E+03 0.395E+02   0.191E+01 0.191E+01 -.266E+01   0.414E-03 0.414E-03 -.399E-01
   0.129E+03 -.129E+03 -.636E+02   -.131E+03 0.131E+03 0.633E+02   0.209E+01 -.209E+01 0.246E+00   -.256E-01 0.256E-01 -.511E-03
   -.129E+03 0.129E+03 -.636E+02   0.131E+03 -.131E+03 0.633E+02   -.209E+01 0.209E+01 0.246E+00   0.256E-01 -.256E-01 -.511E-03
   0.180E-11 -.123E-12 -.660E-11   0.426E-13 -.883E-13 0.330E-13   0.000E+00 0.000E+00 0.000E+00   0.350E-11 -.602E-11 0.630E-12
   -.111E-12 0.180E-11 -.229E-12   0.341E-12 0.131E-12 -.143E-13   0.000E+00 0.000E+00 0.000E+00   0.366E-11 -.655E-11 -.293E-12
   0.129E+03 -.129E+03 0.636E+02   -.131E+03 0.131E+03 -.633E+02   0.209E+01 -.209E+01 -.246E+00   -.256E-01 0.256E-01 0.511E-03
   -.129E+03 0.129E+03 0.636E+02   0.131E+03 -.131E+03 -.633E+02   -.209E+01 0.209E+01 -.246E+00   0.256E-01 -.256E-01 0.511E-03
   0.179E-11 -.112E-12 0.552E-11   0.711E-13 0.201E-12 -.888E-14   0.000E+00 0.000E+00 0.000E+00   -.217E-11 0.207E-11 -.343E-11
   0.328E-11 -.640E-11 0.130E-11   -.285E-13 -.877E-13 0.338E-13   0.000E+00 0.000E+00 0.000E+00   -.359E-11 -.414E-11 -.168E-11
 -----------------------------------------------------------------------------------------------
   0.293E-10 0.524E-10 0.673E-10   -.427E-13 -.568E-13 -.110E-12   -.133E-14 0.355E-14 -.222E-14   -.428E-12 0.152E-10 -.126E-11
 
 
 POSITION                                       TOTAL-FORCE (eV/Angst)
 -----------------------------------------------------------------------------------
      0.96416      8.46787      4.59054        -0.000454      0.000454      0.002443
      3.79866      5.63337      4.72627         0.006223     -0.006223      0.004457
      8.51857      5.62834      4.73034         0.014217      0.011415     -0.001356
      6.13994      1.45589      0.00000        -0.007650      0.007866      0.000000
      7.97614      3.29209      0.00000        -0.007866      0.007650      0.000000
      8.46787      0.96416      1.71526         0.000454     -0.000454     -0.002443
      5.63337      3.79866      1.57953        -0.006223      0.006223     -0.004457
      6.09917      1.47803      3.15290        -0.026462      0.026402      0.000000
      3.33286      7.95399      3.15290         0.026462     -0.026402      0.000000
      7.95399      3.33286      3.15290        -0.026402      0.026462      0.000000
      5.63337      3.79866      4.72627        -0.006223      0.006223      0.004457
      6.13540      6.13540      0.00000         0.002693      0.002693      0.000000
      7.96394      7.96394      0.00000        -0.012429     -0.012429      0.000000
      8.51857      5.62834      1.57547         0.014217      0.011415      0.001356
      5.62834      8.51857      1.57547         0.011415      0.014217      0.001356
      6.16169      6.16169      3.15290         0.004581      0.004581      0.000000
      7.98023      7.98023      3.15290         0.003465      0.003465      0.000000
      8.46787      0.96416      4.59054         0.000454     -0.000454      0.002443
      1.47803      6.09917      3.15290         0.026402     -0.026462      0.000000
      5.62834      8.51857      4.73034         0.011415      0.014217     -0.001356
      3.27034      3.27034      3.15290        -0.004581     -0.004581      0.000000
      0.96416      8.46787      1.71526        -0.000454      0.000454     -0.002443
      3.79866      5.63337      1.57953         0.006223     -0.006223     -0.004457
      3.29209      7.97614      0.00000         0.007650     -0.007866      0.000000
      1.45180      1.45180      3.15290        -0.003465     -0.003465      0.000000
      1.46808      1.46808      0.00000         0.012429      0.012429      0.000000
      1.45589      6.13994      0.00000         0.007866     -0.007650      0.000000
      0.91346      3.80368      1.57547        -0.014217     -0.011415      0.001356
      3.80368      0.91346      4.73034        -0.011415     -0.014217     -0.001356
      0.91346      3.80368      4.73034        -0.014217     -0.011415     -0.001356
      3.29662      3.29662      0.00000        -0.002693     -0.002693      0.000000
      3.80368      0.91346      1.57547        -0.011415     -0.014217      0.001356
      4.71601      4.71601      3.15290         0.000000      0.000000      0.000000
      7.08484      7.08484      4.74191         0.014621      0.014621      0.011044
      2.34718      2.34718      1.56390        -0.014621     -0.014621     -0.011044
      0.00000      0.00000      3.15290         0.000000      0.000000      0.000000
      7.08484      7.08484      1.56390         0.014621      0.014621     -0.011044
      0.00000      4.71601      3.15290         0.000000      0.000000      0.000000
      2.34718      2.34718      4.74191        -0.014621     -0.014621      0.011044
      2.35755      7.07448      4.73199         0.009607     -0.009607     -0.002636
      7.07448      2.35755      4.73199        -0.009607      0.009607     -0.002636
      4.71601      0.00000      3.15290         0.000000      0.000000      0.000000
      0.00000      4.71601      0.00000         0.000000      0.000000      0.000000
      2.35755      7.07448      1.57382         0.009607     -0.009607      0.002636
      7.07448      2.35755      1.57382        -0.009607      0.009607      0.002636
      4.71601      0.00000      0.00000         0.000000      0.000000      0.000000
      4.71601      4.71601      0.00000         0.000000      0.000000      0.000000
 -----------------------------------------------------------------------------------
    total drift:                                0.000000      0.000000      0.000000


--------------------------------------------------------------------------------------------------------



  FREE ENERGIE OF THE ION-ELECTRON SYSTEM (eV)
  ---------------------------------------------------
  free  energy   TOTEN  =      -297.79988685 eV

  energy  without entropy=     -297.66362671  energy(sigma->0) =     -297.73175678
 
 d Force = 0.7159719E-03[ 0.375E-03, 0.106E-02]  d Energy = 0.6659875E-03 0.500E-04
 d Force =-0.9914770E-01[-0.108E+00,-0.898E-01]  d Ewald  =-0.9913630E-01-0.114E-04


--------------------------------------------------------------------------------------------------------


    POTLOK:  cpu time    0.6679: real time    0.6699


--------------------------------------------------------------------------------------------------------


 Quasi-Newton relaxation of ions (Broydens 2nd method)
  g(Force)  = 0.622E-03   g(Stress)= 0.000E+00

 retain information from N=  1 steps
 eigenvalues of (default step * inverse Hessian matrix)
  average eigenvalue of G=   0.4534
 eigenvalue spectrum of G is  0.4534


--------------------------------------------------------------------------------------------------------


  
 reached required accuracy - stopping structural energy minimisation
 writing wavefunctions
     LOOP+:  cpu time  340.4272: real time  353.8611
    4ORBIT:  cpu time    0.0000: real time    0.0000

 total amount of memory used by VASP on root node    52824. kBytes
========================================================================

   base      :      30000. kBytes
   nonl-proj :       5182. kBytes
   fftplans  :       1450. kBytes
   grid      :       2326. kBytes
   one-center:         93. kBytes
   wavefun   :      13773. kBytes
 
  
  
 General timing and accounting informations for this job:
 ========================================================
  
                  Total CPU time used (sec):     1812.348
                            User time (sec):     1796.067
                          System time (sec):       16.281
                         Elapsed time (sec):     1907.180
  
                   Maximum memory used (kb):       64580.
                   Average memory used (kb):           0.
  
                          Minor page faults:        10099
                          Major page faults:            0
                 Voluntary context switches:         1060
