 running on   32 total cores
 distrk:  each k-point on   32 cores,    1 groups
 distr:  one band on    8 cores,    4 groups
 using from now: INCAR     
 vasp.5.4.1 05Feb16 (build Dec 31 2016 05:41:53) complex                        
  
 POSCAR found type information on POSCAR  O  Sn H 
 POSCAR found :  3 types and      48 ions
 scaLAPACK will be used

 ----------------------------------------------------------------------------- 
|                                                                             |
|  ADVICE TO THIS USER RUNNING 'VASP/VAMP'   (HEAR YOUR MASTER'S VOICE ...):  |
|                                                                             |
|      You have a (more or less) 'large supercell' and for larger cells       |
|      it might be more efficient to use real space projection opertators     |
|      So try LREAL= Auto  in the INCAR   file.                               |
|      Mind: At the moment your POTCAR file does not contain real space       |
|       projectors, and has to be modified,  BUT if you                       |
|      want to do an extremely  accurate calculation you might also keep the  |
|      reciprocal projection scheme          (i.e. LREAL=.FALSE.)             |
|                                                                             |
 ----------------------------------------------------------------------------- 

 LDA part: xc-table for Pade appr. of Perdew
 POSCAR, INCAR and KPOINTS ok, starting setup
 FFT: planning ...
 WAVECAR not read
 entering main loop
       N       E                     dE             d eps       ncg     rms          rms(c)
RMM:   1     0.484392744938E+01    0.48439E+01   -0.22963E+05  1952   0.235E+03
RMM:   2     0.558285824878E+03    0.55344E+03   -0.44780E+04  1952   0.433E+02
RMM:   3    -0.986357396706E+02   -0.65692E+03   -0.12645E+04  1952   0.208E+02
RMM:   4    -0.258911416112E+03   -0.16028E+03   -0.49706E+03  4760   0.159E+02
RMM:   5    -0.328924761800E+03   -0.70013E+02   -0.66056E+02  5039   0.395E+01BRMIX: very serious problems
 the old and the new charge density differ
 old charge density:   403.00000 new  405.00000
    0.411E+01
RMM:   6    -0.288770540252E+03    0.40154E+02   -0.20941E+02  4676   0.256E+01    0.166E+01
RMM:   7    -0.290441382714E+03   -0.16708E+01   -0.36379E+01  5024   0.873E+00    0.945E+00
RMM:   8    -0.290681708328E+03   -0.24033E+00   -0.61474E+00  4706   0.493E+00    0.458E+00
RMM:   9    -0.290560751419E+03    0.12096E+00   -0.11917E+00  4797   0.195E+00    0.186E+00
RMM:  10    -0.290529503394E+03    0.31248E-01   -0.37870E-01  4731   0.115E+00    0.575E-01
RMM:  11    -0.290539903987E+03   -0.10401E-01   -0.10826E-01  4648   0.581E-01    0.450E-01
RMM:  12    -0.290538134504E+03    0.17695E-02   -0.14189E-02  4964   0.189E-01    0.239E-01
RMM:  13    -0.290537658517E+03    0.47599E-03   -0.39860E-03  4093   0.115E-01    0.106E-01
RMM:  14    -0.290537598330E+03    0.60187E-04   -0.60927E-04  3307   0.429E-02
   1 F= -.29053760E+03 E0= -.29050364E+03  d E =-.290538E+03
 BRION: g(F)=  0.231E+00 g(S)=  0.000E+00
 bond charge predicted
       N       E                     dE             d eps       ncg     rms          rms(c)
RMM:   1    -0.290251279630E+03    0.28638E+00   -0.58388E+01  1952   0.154E+01
RMM:   2    -0.290970131857E+03   -0.71885E+00   -0.10551E+01  1952   0.672E+00
RMM:   3    -0.340997872048E+03   -0.50028E+02   -0.34683E+02  1952   0.185E+01
RMM:   4    -0.139715958944E+03    0.20128E+03   -0.46278E+03  4775   0.845E+01
RMM:   5    -0.228758447171E+03   -0.89042E+02   -0.38888E+02  5174   0.176E+01    0.777E+00
RMM:   6    -0.256552570536E+03   -0.27794E+02   -0.15476E+02  4707   0.122E+01    0.322E+00
RMM:   7    -0.271837388914E+03   -0.15285E+02   -0.89725E+01  4769   0.576E+00    0.282E+00
RMM:   8    -0.277687990066E+03   -0.58506E+01   -0.32264E+01  4774   0.318E+00    0.188E+00
RMM:   9    -0.283054147265E+03   -0.53662E+01   -0.30671E+01  4821   0.238E+00    0.153E+00
RMM:  10    -0.287763578004E+03   -0.47094E+01   -0.30159E+01  4914   0.186E+00    0.188E+00
RMM:  11    -0.289881020478E+03   -0.21174E+01   -0.15752E+01  4737   0.163E+00    0.227E+00
RMM:  12    -0.290791850117E+03   -0.91083E+00   -0.84268E+00  4128   0.955E-01    0.249E+00
RMM:  13    -0.290729459966E+03    0.62390E-01   -0.82435E-01  3446   0.373E-01    0.250E+00
RMM:  14    -0.290732251366E+03   -0.27914E-02   -0.11067E-01  3953   0.170E-01    0.248E+00
RMM:  15    -0.290750486785E+03   -0.18235E-01   -0.21031E-02  4070   0.101E-01    0.257E+00
RMM:  16    -0.290695357530E+03    0.55129E-01   -0.15232E-02  4503   0.176E-01    0.227E+00
RMM:  17    -0.290592267276E+03    0.10309E+00   -0.65809E-02  4669   0.416E-01    0.144E+00
RMM:  18    -0.290540300186E+03    0.51967E-01   -0.10326E-01  4663   0.581E-01    0.536E-01
RMM:  19    -0.290541946313E+03   -0.16461E-02   -0.40302E-02  4737   0.328E-01    0.527E-01
RMM:  20    -0.290536196841E+03    0.57495E-02   -0.93406E-03  4516   0.158E-01    0.282E-01
RMM:  21    -0.290536160935E+03    0.35906E-04   -0.28936E-03  4295   0.108E-01    0.211E-01
RMM:  22    -0.290536731063E+03   -0.57013E-03   -0.21771E-03  4105   0.769E-02    0.213E-01
RMM:  23    -0.290535852742E+03    0.87832E-03   -0.36202E-03  4391   0.121E-01    0.108E-01
RMM:  24    -0.290535606279E+03    0.24646E-03   -0.24608E-04  2568   0.303E-02    0.603E-02
RMM:  25    -0.290535566568E+03    0.39712E-04   -0.25995E-05  2356   0.197E-02
   2 F= -.29053557E+03 E0= -.29050555E+03  d E =0.203176E-02
 BRION: g(F)=  0.278E+00 g(S)=  0.000E+00 retain N=  1 mean eig= 0.48
 eig:   0.477
 bond charge predicted
       N       E                     dE             d eps       ncg     rms          rms(c)
RMM:   1    -0.290572510183E+03   -0.36904E-01   -0.16659E+01  1952   0.825E+00
RMM:   2    -0.290811819576E+03   -0.23931E+00   -0.36414E+00  1952   0.332E+00
RMM:   3    -0.313940206076E+03   -0.23128E+02   -0.14943E+02  1952   0.108E+01
RMM:   4    -0.202863493556E+03    0.11108E+03   -0.24397E+03  4757   0.607E+01
RMM:   5    -0.247456236886E+03   -0.44593E+02   -0.19649E+02  4980   0.121E+01    0.831E+00
RMM:   6    -0.266580338916E+03   -0.19124E+02   -0.10325E+02  4708   0.900E+00    0.452E+00
RMM:   7    -0.281064383704E+03   -0.14484E+02   -0.78158E+01  4720   0.447E+00    0.301E+00
RMM:   8    -0.287139520273E+03   -0.60751E+01   -0.13046E+01  4730   0.265E+00    0.244E+00
RMM:   9    -0.289295636064E+03   -0.21561E+01   -0.15815E+01  4734   0.223E+00    0.191E+00
RMM:  10    -0.290014563890E+03   -0.71893E+00   -0.42543E+00  4677   0.105E+00    0.161E+00
RMM:  11    -0.290223841609E+03   -0.20928E+00   -0.33771E+00  4726   0.534E-01    0.140E+00
RMM:  12    -0.290248854122E+03   -0.25013E-01   -0.43407E-01  4681   0.274E-01    0.129E+00
RMM:  13    -0.290309787528E+03   -0.60933E-01   -0.90810E-01  4551   0.188E-01    0.119E+00
RMM:  14    -0.290417265096E+03   -0.10748E+00   -0.51117E-01  4683   0.295E-01    0.980E-01
RMM:  15    -0.290541498662E+03   -0.12423E+00   -0.16434E+00  4338   0.186E-01    0.926E-01
RMM:  16    -0.290523378964E+03    0.18120E-01   -0.60359E-02  4031   0.106E-01    0.844E-01
RMM:  17    -0.290511084220E+03    0.12295E-01   -0.37757E-02  4448   0.138E-01    0.592E-01
RMM:  18    -0.290508668073E+03    0.24161E-02   -0.54173E-02  4367   0.126E-01    0.382E-01
RMM:  19    -0.290608564399E+03   -0.99896E-01   -0.40092E-01  4051   0.104E-01    0.314E-01
RMM:  20    -0.290599634094E+03    0.89303E-02   -0.83152E-02  3015   0.511E-02    0.311E-01
RMM:  21    -0.290603825627E+03   -0.41915E-02   -0.37927E-02  2492   0.278E-02    0.315E-01
RMM:  22    -0.290604706648E+03   -0.88102E-03   -0.46456E-03  3974   0.744E-02    0.424E-01
RMM:  23    -0.290602449693E+03    0.22570E-02   -0.10489E-02  4487   0.160E-01    0.265E-01
RMM:  24    -0.290602154031E+03    0.29566E-03   -0.73797E-04  3603   0.490E-02    0.289E-01
RMM:  25    -0.290601082628E+03    0.10714E-02   -0.54055E-04  3578   0.372E-02    0.192E-01
RMM:  26    -0.290601009773E+03    0.72855E-04   -0.18099E-04  2591   0.247E-02
   3 F= -.29060101E+03 E0= -.29056941E+03  d E =-.654432E-01
 BRION: g(F)=  0.314E-02 g(S)=  0.000E+00 retain N=  1 mean eig= 0.47
 eig:   0.471
 bond charge predicted
       N       E                     dE             d eps       ncg     rms          rms(c)
RMM:   1    -0.290597652421E+03    0.34302E-02   -0.75290E-01  1952   0.174E+00
RMM:   2    -0.290604781228E+03   -0.71288E-02   -0.98380E-02  1952   0.640E-01
RMM:   3    -0.297853097384E+03   -0.72483E+01   -0.24258E+01  1952   0.214E+00
RMM:   4    -0.285254758564E+03    0.12598E+02   -0.39595E+02  4565   0.201E+01
RMM:   5    -0.289739644797E+03   -0.44849E+01   -0.27300E+01  3981   0.275E+00    0.211E+00
RMM:   6    -0.290048307979E+03   -0.30866E+00   -0.55784E+00  4675   0.152E+00    0.162E+00
RMM:   7    -0.290020769164E+03    0.27539E-01   -0.95637E-01  4597   0.595E-01    0.559E-01
RMM:   8    -0.290016782877E+03    0.39863E-02   -0.63456E-02  4401   0.298E-01    0.131E-01
RMM:   9    -0.290017171617E+03   -0.38874E-03   -0.81674E-03  3975   0.862E-02    0.965E-02
RMM:  10    -0.290138570402E+03   -0.12140E+00   -0.53018E-03  3162   0.510E-02    0.590E-01
RMM:  11    -0.290417058422E+03   -0.27849E+00   -0.22715E+00  2859   0.142E-01    0.597E-01
RMM:  12    -0.290414160789E+03    0.28976E-02   -0.49933E-02  2473   0.393E-02    0.596E-01
RMM:  13    -0.290414080798E+03    0.79991E-04   -0.83894E-03  2550   0.297E-02    0.584E-01
RMM:  14    -0.290412865549E+03    0.12152E-02   -0.42288E-03  2859   0.319E-02    0.560E-01
RMM:  15    -0.290407898021E+03    0.49675E-02   -0.67871E-03  3934   0.645E-02    0.460E-01
RMM:  16    -0.290630566859E+03   -0.22267E+00   -0.21669E-02  4415   0.126E-01    0.729E-01
RMM:  17    -0.290622206023E+03    0.83608E-02   -0.97243E-01  3932   0.112E-01    0.657E-01
RMM:  18    -0.290614325187E+03    0.78808E-02   -0.15727E-02  2414   0.348E-02    0.649E-01
RMM:  19    -0.290613386423E+03    0.93876E-03   -0.33556E-03  3005   0.376E-02    0.599E-01
RMM:  20    -0.290609043244E+03    0.43432E-02   -0.12337E-03  3674   0.469E-02    0.488E-01
RMM:  21    -0.290606049084E+03    0.29942E-02   -0.13513E-03  3878   0.563E-02    0.351E-01
RMM:  22    -0.290603031191E+03    0.30179E-02   -0.24256E-03  4169   0.702E-02    0.190E-01
RMM:  23    -0.290601668940E+03    0.13623E-02   -0.30560E-03  4221   0.740E-02    0.360E-02
RMM:  24    -0.290601703568E+03   -0.34628E-04   -0.17686E-04  2721   0.218E-02
   4 F= -.29060170E+03 E0= -.29056929E+03  d E =-.693794E-03
 BRION: g(F)=  0.204E-02 g(S)=  0.000E+00 retain N=  2 mean eig= 0.51
 eig:   0.462  0.563
 bond charge predicted
       N       E                     dE             d eps       ncg     rms          rms(c)
RMM:   1    -0.290602092809E+03   -0.42387E-03   -0.17920E-01  1952   0.846E-01
RMM:   2    -0.290603100542E+03   -0.10077E-02   -0.18099E-02  1952   0.286E-01
RMM:   3    -0.291274374887E+03   -0.67127E+00    0.68173E-02  1952   0.335E-01
RMM:   4    -0.287904166638E+03    0.33702E+01   -0.17392E+02  4199   0.111E+01
RMM:   5    -0.288424198853E+03   -0.52003E+00   -0.14167E+00  3611   0.723E-01    0.203E+00
RMM:   6    -0.290921208294E+03   -0.24970E+01   -0.44187E+00  4650   0.155E+00    0.268E+00
RMM:   7    -0.290641829473E+03    0.27938E+00   -0.19588E+00  4511   0.785E-01    0.123E+00
RMM:   8    -0.290621996944E+03    0.19833E-01   -0.72085E-02  4361   0.257E-01    0.785E-01
RMM:   9    -0.290612332496E+03    0.96644E-02   -0.13438E-02  4285   0.129E-01    0.507E-01
RMM:  10    -0.290608676097E+03    0.36564E-02   -0.25728E-03  4175   0.633E-02    0.392E-01
RMM:  11    -0.290606116489E+03    0.25596E-02   -0.97159E-04  3795   0.464E-02    0.308E-01
RMM:  12    -0.290603740861E+03    0.23756E-02   -0.16005E-03  3943   0.545E-02    0.190E-01
RMM:  13    -0.290602875098E+03    0.86576E-03   -0.83777E-04  3572   0.397E-02    0.115E-01
RMM:  14    -0.290602410848E+03    0.46425E-03   -0.70087E-04  3558   0.386E-02    0.406E-02
RMM:  15    -0.290602369323E+03    0.41525E-04   -0.26682E-04  2852   0.239E-02
   5 F= -.29060237E+03 E0= -.29057008E+03  d E =-.665755E-03
 BRION: g(F)=  0.490E-03 g(S)=  0.000E+00 retain N=  3 mean eig= 2.38
 eig:   6.179  0.458  0.493
 bond charge predicted
       N       E                     dE             d eps       ncg     rms          rms(c)
RMM:   1    -0.290602330969E+03    0.79879E-04   -0.17404E-01  1952   0.832E-01
RMM:   2    -0.290602911394E+03   -0.58042E-03   -0.10149E-02  1952   0.251E-01
RMM:   3    -0.290603395289E+03   -0.48390E-03   -0.36129E-03  1952   0.145E-01
RMM:   4    -0.290608968479E+03   -0.55732E-02   -0.10392E+01  4034   0.146E+00
RMM:   5    -0.290602852759E+03    0.61157E-02   -0.33641E-02  2943   0.102E-01    0.605E-02
RMM:   6    -0.290602854308E+03   -0.15483E-05   -0.91530E-04  3006   0.378E-02
   6 F= -.29060285E+03 E0= -.29057066E+03  d E =-.484985E-03
 BRION: g(F)=  0.265E-03 g(S)=  0.000E+00 retain N=  3 mean eig= 2.84
 eig:   7.312  0.374  0.821
 bond charge predicted
       N       E                     dE             d eps       ncg     rms          rms(c)
RMM:   1    -0.290602190353E+03    0.66241E-03   -0.26835E-01  1952   0.104E+00
RMM:   2    -0.291778493525E+03   -0.11763E+01   -0.16119E-02  1952   0.311E-01
RMM:   3    -0.299858525447E+03   -0.80800E+01   -0.27823E+01  1952   0.372E-01
RMM:   4    -0.290622088124E+03    0.92364E+01   -0.34102E+02  4097   0.391E+00
RMM:   5    -0.290603553504E+03    0.18535E-01   -0.14885E-01  3057   0.162E-01    0.771E-02
RMM:   6    -0.290609790420E+03   -0.62369E-02   -0.38378E-03  3180   0.493E-02    0.195E-01
RMM:   7    -0.290603130763E+03    0.66597E-02   -0.41319E-01  2368   0.544E-02    0.657E-02
RMM:   8    -0.290603103190E+03    0.27573E-04   -0.21070E-04  2428   0.227E-02
   7 F= -.29060310E+03 E0= -.29057075E+03  d E =-.248882E-03
 BRION: g(F)=  0.187E-03 g(S)=  0.000E+00 retain N=  3 mean eig= 0.81
 eig:   0.509  0.966  0.966
 bond charge predicted
       N       E                     dE             d eps       ncg     rms          rms(c)
RMM:   1    -0.290603005829E+03    0.12493E-03   -0.50525E-02  1952   0.465E-01
RMM:   2    -0.291605834660E+03   -0.10028E+01   -0.35843E-03  1952   0.146E-01
RMM:   3    -0.299095576286E+03   -0.74897E+01    0.36220E-02  1944   0.120E-01
RMM:   4    -0.290227476317E+03    0.88681E+01   -0.12429E+02  3868   0.236E+00
RMM:   5    -0.290945994196E+03   -0.71852E+00   -0.41431E-01  2888   0.185E-01    0.464E-02
RMM:   6    -0.290604134208E+03    0.34186E+00   -0.11118E+00  2755   0.143E-01    0.454E-02
RMM:   7    -0.290603199537E+03    0.93467E-03   -0.11202E-02  2388   0.306E-02    0.188E-02
RMM:   8    -0.290603172861E+03    0.26676E-04   -0.49338E-04  2441   0.236E-02
   8 F= -.29060317E+03 E0= -.29057085E+03  d E =-.696714E-04
 BRION: g(F)=  0.609E-04 g(S)=  0.000E+00 retain N=  4 mean eig= 1.43
 eig:   2.195  2.195  0.570  0.765
 bond charge predicted
       N       E                     dE             d eps       ncg     rms          rms(c)
RMM:   1    -0.290603124297E+03    0.75240E-04   -0.28638E-02  1952   0.351E-01
RMM:   2    -0.290603265151E+03   -0.14085E-03   -0.22478E-03  1952   0.112E-01
RMM:   3    -0.294289065241E+03   -0.36858E+01    0.94806E-02  1931   0.116E-01
RMM:   4    -0.290641556662E+03    0.36475E+01   -0.63445E+01  3722   0.257E+00
RMM:   5    -0.290603203802E+03    0.38353E-01   -0.83438E-02  2729   0.163E-01    0.248E-02
RMM:   6    -0.290603154794E+03    0.49008E-04   -0.27316E-03  2596   0.380E-02    0.241E-02
RMM:   7    -0.290603197826E+03   -0.43032E-04   -0.63469E-04  2287   0.208E-02
   9 F= -.29060320E+03 E0= -.29057083E+03  d E =-.249649E-04
 BRION: g(F)=  0.318E-04 g(S)=  0.000E+00 retain N=  5 mean eig= 2.22
 eig:   4.553  4.553  0.526  0.721  0.721
 reached required accuracy - stopping structural energy minimisation
 writing wavefunctions
