 running on   32 total cores
 distrk:  each k-point on   32 cores,    1 groups
 distr:  one band on    8 cores,    4 groups
 using from now: INCAR     
 vasp.5.4.1 05Feb16 (build Dec 31 2016 05:41:53) complex                        
  
 POSCAR found type information on POSCAR  O  Sn
 POSCAR found :  2 types and      49 ions
 scaLAPACK will be used

 ----------------------------------------------------------------------------- 
|                                                                             |
|  ADVICE TO THIS USER RUNNING 'VASP/VAMP'   (HEAR YOUR MASTER'S VOICE ...):  |
|                                                                             |
|      You have a (more or less) 'large supercell' and for larger cells       |
|      it might be more efficient to use real space projection opertators     |
|      So try LREAL= Auto  in the INCAR   file.                               |
|      Mind: At the moment your POTCAR file does not contain real space       |
|       projectors, and has to be modified,  BUT if you                       |
|      want to do an extremely  accurate calculation you might also keep the  |
|      reciprocal projection scheme          (i.e. LREAL=.FALSE.)             |
|                                                                             |
 ----------------------------------------------------------------------------- 

 LDA part: xc-table for Pade appr. of Perdew
 found WAVECAR, reading the header
 POSCAR, INCAR and KPOINTS ok, starting setup
 FFT: planning ...
 reading WAVECAR
 the WAVECAR file was read successfully
 entering main loop
       N       E                     dE             d eps       ncg     rms          rms(c)
RMM:   1    -0.189297718372E+03   -0.18930E+03   -0.46475E+02  2560   0.438E+01
RMM:   2    -0.839906049436E+03   -0.65061E+03   -0.77639E+03  2560   0.105E+02
RMM:   3    -0.723586580217E+03    0.11632E+03   -0.17455E+04  2560   0.179E+02
RMM:   4    -0.884098736925E+02    0.63518E+03   -0.13556E+04  6360   0.224E+02
RMM:   5    -0.201363351603E+03   -0.11295E+03   -0.14460E+03  6334   0.519E+01BRMIX: very serious problems
 the old and the new charge density differ
 old charge density:   422.00000 new  424.00000
    0.370E+01
RMM:   6    -0.238896180685E+03   -0.37533E+02   -0.57518E+02  6305   0.286E+01    0.172E+01
RMM:   7    -0.266580625264E+03   -0.27684E+02   -0.24309E+02  6453   0.159E+01    0.942E+00
RMM:   8    -0.281514461306E+03   -0.14934E+02   -0.12573E+02  6434   0.910E+00    0.481E+00
RMM:   9    -0.290078743886E+03   -0.85643E+01   -0.71834E+01  6552   0.564E+00    0.238E+00
RMM:  10    -0.295548630364E+03   -0.54699E+01   -0.47777E+01  6466   0.426E+00    0.180E+00
RMM:  11    -0.297202056741E+03   -0.16534E+01   -0.14846E+01  6487   0.234E+00    0.912E-01
RMM:  12    -0.298132142959E+03   -0.93009E+00   -0.10721E+01  6396   0.153E+00    0.608E-01
RMM:  13    -0.298086679182E+03    0.45464E-01   -0.12983E+00  6808   0.725E-01    0.454E-01
RMM:  14    -0.298090225470E+03   -0.35463E-02   -0.25316E-01  5925   0.363E-01    0.221E-01
RMM:  15    -0.298093592190E+03   -0.33667E-02   -0.69795E-02  5903   0.184E-01    0.828E-02
RMM:  16    -0.298094159081E+03   -0.56689E-03   -0.16385E-02  5219   0.938E-02    0.377E-02
RMM:  17    -0.298094413182E+03   -0.25410E-03   -0.48142E-03  3689   0.438E-02    0.216E-02
RMM:  18    -0.298094460747E+03   -0.47565E-04   -0.13839E-03  3728   0.353E-02    0.104E-02
RMM:  19    -0.298094474261E+03   -0.13514E-04   -0.43835E-04  3565   0.268E-02
   1 F= -.29809447E+03 E0= -.29809185E+03  d E =-.298094E+03
 BRION: g(F)=  0.233E+01 g(S)=  0.000E+00
 bond charge predicted
       N       E                     dE             d eps       ncg     rms          rms(c)
RMM:   1    -0.324324049591E+03   -0.26230E+02   -0.85855E+02  5394   0.502E+01    0.600E+00
RMM:   2    -0.299746072987E+03    0.24578E+02   -0.48537E+01  6111   0.221E+01    0.396E+00
RMM:   3    -0.299512563973E+03    0.23351E+00   -0.17497E+00  6852   0.299E+00    0.266E+00
RMM:   4    -0.299437274258E+03    0.75290E-01   -0.18279E-01  6098   0.914E-01    0.144E+00
RMM:   5    -0.299416666665E+03    0.20608E-01   -0.14662E-01  6080   0.708E-01    0.361E-01
RMM:   6    -0.299415446659E+03    0.12200E-02   -0.11658E-02  6371   0.220E-01    0.192E-01
RMM:   7    -0.299414958292E+03    0.48837E-03   -0.38916E-03  5653   0.118E-01    0.103E-01
RMM:   8    -0.299414869439E+03    0.88854E-04   -0.36261E-04  4618   0.427E-02
   2 F= -.29941487E+03 E0= -.29941486E+03  d E =-.132040E+01
 BRION: g(F)=  0.898E+00 g(S)=  0.000E+00 retain N=  1 mean eig= 0.87
 eig:   0.867
 bond charge predicted
       N       E                     dE             d eps       ncg     rms          rms(c)
RMM:   1    -0.303553226474E+03   -0.41383E+01   -0.18125E+02  5603   0.254E+01    0.274E+00
RMM:   2    -0.299729029550E+03    0.38242E+01   -0.89896E+00  6111   0.915E+00    0.119E+00
RMM:   3    -0.299729831468E+03   -0.80192E-03   -0.53116E-01  6889   0.152E+00    0.104E+00
RMM:   4    -0.299724341489E+03    0.54900E-02   -0.15979E-02  6085   0.322E-01    0.725E-01
RMM:   5    -0.299717302633E+03    0.70389E-02   -0.26045E-02  6052   0.311E-01    0.137E-01
RMM:   6    -0.299717273449E+03    0.29184E-04   -0.26134E-03  6119   0.100E-01    0.942E-02
RMM:   7    -0.299717234790E+03    0.38659E-04   -0.28102E-04  4018   0.366E-02
   3 F= -.29971723E+03 E0= -.29971591E+03  d E =-.302365E+00
 BRION: g(F)=  0.495E+00 g(S)=  0.000E+00 retain N=  2 mean eig= 0.62
 eig:   0.617  0.617
 bond charge predicted
       N       E                     dE             d eps       ncg     rms          rms(c)
RMM:   1    -0.302034422419E+03   -0.23171E+01   -0.10541E+02  5427   0.193E+01    0.224E+00
RMM:   2    -0.299910323803E+03    0.21241E+01   -0.61235E+00  6111   0.801E+00    0.761E-01
RMM:   3    -0.299935008381E+03   -0.24685E-01   -0.41193E-01  6832   0.129E+00    0.912E-01
RMM:   4    -0.299934818977E+03    0.18940E-03   -0.90175E-03  6392   0.246E-01    0.684E-01
RMM:   5    -0.299932714435E+03    0.21045E-02   -0.81803E-03  6061   0.228E-01    0.243E-01
RMM:   6    -0.299932559711E+03    0.15472E-03   -0.13535E-03  5759   0.884E-02    0.216E-01
RMM:   7    -0.299932547501E+03    0.12210E-04   -0.19716E-04  3125   0.324E-02
   4 F= -.29993255E+03 E0= -.29993251E+03  d E =-.215313E+00
 BRION: g(F)=  0.833E-01 g(S)=  0.000E+00 retain N=  3 mean eig= 1.38
 eig:   0.799  1.665  1.665
 bond charge predicted
       N       E                     dE             d eps       ncg     rms          rms(c)
RMM:   1    -0.301144407720E+03   -0.12118E+01   -0.38069E+01  5132   0.110E+01    0.932E-01
RMM:   2    -0.299991600429E+03    0.11528E+01   -0.21199E+00  6110   0.477E+00    0.364E-01
RMM:   3    -0.299992591305E+03   -0.99088E-03   -0.65863E-02  6835   0.585E-01    0.359E-01
RMM:   4    -0.299992454302E+03    0.13700E-03   -0.15114E-03  5894   0.980E-02    0.265E-01
RMM:   5    -0.299992210528E+03    0.24377E-03   -0.18273E-03  5945   0.926E-02    0.541E-02
RMM:   6    -0.299992209480E+03    0.10484E-05   -0.14334E-04  3111   0.281E-02
   5 F= -.29999221E+03 E0= -.29999220E+03  d E =-.596620E-01
 BRION: g(F)=  0.370E-01 g(S)=  0.000E+00 retain N=  4 mean eig= 1.94
 eig:   2.971  2.971  0.901  0.901
 bond charge predicted
       N       E                     dE             d eps       ncg     rms          rms(c)
RMM:   1    -0.300385320476E+03   -0.39311E+00   -0.16258E+01  5120   0.742E+00    0.643E-01
RMM:   2    -0.300020940753E+03    0.36438E+00   -0.77262E-01  6110   0.288E+00    0.263E-01
RMM:   3    -0.300022442366E+03   -0.15016E-02   -0.32592E-02  6802   0.381E-01    0.248E-01
RMM:   4    -0.300022454386E+03   -0.12020E-04   -0.80424E-04  4947   0.657E-02
   6 F= -.30002245E+03 E0= -.30002244E+03  d E =-.302449E-01
 BRION: g(F)=  0.151E-01 g(S)=  0.000E+00 retain N=  5 mean eig= 2.33
 eig:   4.258  4.258  1.120  1.120  0.871
 bond charge predicted
       N       E                     dE             d eps       ncg     rms          rms(c)
RMM:   1    -0.300574008696E+03   -0.55157E+00   -0.24731E+01  5120   0.905E+00    0.708E-01
RMM:   2    -0.300045414263E+03    0.52859E+00   -0.99455E-01  6110   0.323E+00    0.309E-01
RMM:   3    -0.300045574959E+03   -0.16070E-03   -0.32534E-02  6831   0.406E-01    0.234E-01
RMM:   4    -0.300045484869E+03    0.90090E-04   -0.92201E-04  5506   0.718E-02
   7 F= -.30004548E+03 E0= -.30004548E+03  d E =-.230305E-01
 BRION: g(F)=  0.543E-02 g(S)=  0.000E+00 retain N=  6 mean eig= 2.84
 eig:   5.582  5.582  1.880  1.880  1.054  1.054
 bond charge predicted
       N       E                     dE             d eps       ncg     rms          rms(c)
RMM:   1    -0.300180230599E+03   -0.13466E+00   -0.66140E+00  5120   0.484E+00    0.386E-01
RMM:   2    -0.300052487749E+03    0.12774E+00   -0.26506E-01  6110   0.167E+00    0.154E-01
RMM:   3    -0.300052959397E+03   -0.47165E-03   -0.10607E-02  6755   0.224E-01    0.140E-01
RMM:   4    -0.300052970309E+03   -0.10912E-04   -0.32514E-04  3767   0.398E-02
   8 F= -.30005297E+03 E0= -.30005296E+03  d E =-.748544E-02
 BRION: g(F)=  0.295E-02 g(S)=  0.000E+00 retain N=  7 mean eig= 3.27
 eig:   6.774  6.774  3.006  3.006  1.175  1.175  0.968
 bond charge predicted
       N       E                     dE             d eps       ncg     rms          rms(c)
RMM:   1    -0.300105808724E+03   -0.52849E-01   -0.26161E+00  5138   0.312E+00    0.277E-01
RMM:   2    -0.300056754223E+03    0.49055E-01   -0.10856E-01  6109   0.106E+00    0.101E-01
RMM:   3    -0.300056976413E+03   -0.22219E-03   -0.50160E-03  6455   0.154E-01    0.907E-02
RMM:   4    -0.300056980349E+03   -0.39359E-05   -0.14786E-04  3125   0.294E-02
   9 F= -.30005698E+03 E0= -.30005697E+03  d E =-.401004E-02
 BRION: g(F)=  0.201E-02 g(S)=  0.000E+00 retain N=  8 mean eig= 3.45
 eig:   6.936  6.936  4.624  4.624  1.247  1.247  0.978  0.978
 bond charge predicted
       N       E                     dE             d eps       ncg     rms          rms(c)
RMM:   1    -0.300108359385E+03   -0.51383E-01   -0.26805E+00  5125   0.321E+00    0.286E-01
RMM:   2    -0.300060232606E+03    0.48127E-01   -0.11099E-01  6110   0.108E+00    0.994E-02
RMM:   3    -0.300060555679E+03   -0.32307E-03   -0.54768E-03  6409   0.160E-01    0.966E-02
RMM:   4    -0.300060564527E+03   -0.88483E-05   -0.17502E-04  3208   0.318E-02
  10 F= -.30006056E+03 E0= -.30006055E+03  d E =-.358418E-02
 BRION: g(F)=  0.132E-02 g(S)=  0.000E+00 retain N=  7 mean eig= 3.40
 eig:   7.882  7.882  2.416  2.416  0.808  1.180  1.180
 bond charge predicted
       N       E                     dE             d eps       ncg     rms          rms(c)
RMM:   1    -0.300119005536E+03   -0.58450E-01   -0.28666E+00  5125   0.329E+00    0.299E-01
RMM:   2    -0.300063328302E+03    0.55677E-01   -0.12071E-01  6110   0.113E+00    0.105E-01
RMM:   3    -0.300063616009E+03   -0.28771E-03   -0.54375E-03  6436   0.162E-01    0.927E-02
RMM:   4    -0.300063621425E+03   -0.54160E-05   -0.17996E-04  3226   0.321E-02
  11 F= -.30006362E+03 E0= -.30006361E+03  d E =-.305690E-02
 BRION: g(F)=  0.915E-03 g(S)=  0.000E+00 retain N=  6 mean eig= 3.76
 eig:   7.185  7.185  2.961  2.961  1.135  1.135
 bond charge predicted
       N       E                     dE             d eps       ncg     rms          rms(c)
RMM:   1    -0.300125127496E+03   -0.61511E-01   -0.32282E+00  5133   0.351E+00    0.315E-01
RMM:   2    -0.300065852510E+03    0.59275E-01   -0.13603E-01  6110   0.119E+00    0.109E-01
RMM:   3    -0.300066251201E+03   -0.39869E-03   -0.67226E-03  6525   0.176E-01    0.109E-01
RMM:   4    -0.300066258084E+03   -0.68828E-05   -0.19697E-04  3239   0.332E-02
  12 F= -.30006626E+03 E0= -.30006624E+03  d E =-.263666E-02
 BRION: g(F)=  0.623E-03 g(S)=  0.000E+00 retain N=  4 mean eig= 4.47
 eig:   7.564  7.564  1.373  1.373
 bond charge predicted
       N       E                     dE             d eps       ncg     rms          rms(c)
RMM:   1    -0.300143550796E+03   -0.77300E-01   -0.38997E+00  5128   0.385E+00    0.349E-01
RMM:   2    -0.300067860584E+03    0.75690E-01   -0.16776E-01  6110   0.133E+00    0.121E-01
RMM:   3    -0.300068296974E+03   -0.43639E-03   -0.78625E-03  6663   0.194E-01    0.116E-01
RMM:   4    -0.300068307724E+03   -0.10750E-04   -0.23584E-04  3312   0.352E-02
  13 F= -.30006831E+03 E0= -.30006829E+03  d E =-.204964E-02
 BRION: g(F)=  0.340E-03 g(S)=  0.000E+00 retain N=  3 mean eig= 4.06
 eig:   5.422  5.422  1.335
 bond charge predicted
       N       E                     dE             d eps       ncg     rms          rms(c)
RMM:   1    -0.300102510019E+03   -0.34213E-01   -0.16731E+00  5125   0.251E+00    0.235E-01
RMM:   2    -0.300069019476E+03    0.33491E-01   -0.72913E-02  6110   0.879E-01    0.833E-02
WARNING in EDDRMM: call to ZHEGV failed, returncode =   6  3 49
RMM:   3    -0.300069205605E+03   -0.18613E-03   -0.33604E-03  6224   0.126E-01    0.741E-02
RMM:   4    -0.300069208353E+03   -0.27474E-05   -0.11772E-04  3192   0.264E-02
  14 F= -.30006921E+03 E0= -.30006919E+03  d E =-.900629E-03
 BRION: g(F)=  0.200E-03 g(S)=  0.000E+00 retain N=  3 mean eig= 3.72
 eig:   4.929  4.929  1.288
 bond charge predicted
       N       E                     dE             d eps       ncg     rms          rms(c)
RMM:   1    -0.300083254305E+03   -0.14049E-01   -0.77993E-01  5140   0.174E+00    0.164E-01
RMM:   2    -0.300069559738E+03    0.13695E-01   -0.33325E-02  6110   0.588E-01    0.565E-02
RMM:   3    -0.300069661876E+03   -0.10214E-03   -0.18019E-03  5749   0.903E-02    0.535E-02
RMM:   4    -0.300069662566E+03   -0.68986E-06   -0.97710E-05  3289   0.252E-02
  15 F= -.30006966E+03 E0= -.30006964E+03  d E =-.454213E-03
 BRION: g(F)=  0.111E-03 g(S)=  0.000E+00 retain N=  4 mean eig= 4.29
 eig:   7.040  7.040  1.531  1.531
 bond charge predicted
       N       E                     dE             d eps       ncg     rms          rms(c)
RMM:   1    -0.300075716136E+03   -0.60543E-02   -0.31642E-01  5130   0.110E+00    0.105E-01
RMM:   2    -0.300069844898E+03    0.58712E-02   -0.13715E-02  6103   0.377E-01    0.369E-02
RMM:   3    -0.300069877083E+03   -0.32185E-04   -0.72812E-04  4488   0.581E-02
  16 F= -.30006988E+03 E0= -.30006986E+03  d E =-.214517E-03
 BRION: g(F)=  0.952E-04 g(S)=  0.000E+00 retain N=  4 mean eig= 4.24
 eig:   7.059  7.059  1.427  1.427
 bond charge predicted
       N       E                     dE             d eps       ncg     rms          rms(c)
RMM:   1    -0.300070859728E+03   -0.10148E-02   -0.70294E-02  5140   0.533E-01    0.627E-02
RMM:   2    -0.300069825047E+03    0.10347E-02   -0.26785E-03  5744   0.163E-01    0.224E-02
RMM:   3    -0.300069823477E+03    0.15695E-05   -0.12023E-04  3040   0.282E-02
  17 F= -.30006982E+03 E0= -.30006980E+03  d E =0.536058E-04
 BRION: g(F)=  0.225E-03 g(S)=  0.000E+00 retain N=  5 mean eig= 4.44
 eig:   6.902  6.902  5.556  1.419  1.419
 bond charge predicted
       N       E                     dE             d eps       ncg     rms          rms(c)
RMM:   1    -0.300072484622E+03   -0.26596E-02   -0.13264E-01  5149   0.711E-01    0.692E-02
RMM:   2    -0.300069950712E+03    0.25339E-02   -0.61354E-03  5777   0.247E-01    0.223E-02
RMM:   3    -0.300069964436E+03   -0.13724E-04   -0.27661E-04  3737   0.404E-02
  18 F= -.30006996E+03 E0= -.30006995E+03  d E =-.140959E-03
 BRION: g(F)=  0.505E-04 g(S)=  0.000E+00 retain N=  2 mean eig= 0.36
 eig:   0.580  0.133
 bond charge predicted
       N       E                     dE             d eps       ncg     rms          rms(c)
RMM:   1    -0.300070157215E+03   -0.20650E-03   -0.11338E-02  5273   0.209E-01    0.310E-02
RMM:   2    -0.300069965386E+03    0.19183E-03   -0.56332E-04  4629   0.714E-02    0.146E-02
RMM:   3    -0.300069960750E+03    0.46363E-05   -0.76053E-05  3147   0.204E-02
  19 F= -.30006996E+03 E0= -.30006994E+03  d E =0.368621E-05
 BRION: g(F)=  0.146E-03 g(S)=  0.000E+00 retain N=  2 mean eig= 2.62
 eig:   0.836  4.397
 bond charge predicted
       N       E                     dE             d eps       ncg     rms          rms(c)
RMM:   1    -0.300071142646E+03   -0.11773E-02   -0.57297E-02  5149   0.463E-01    0.410E-02
RMM:   2    -0.300070037619E+03    0.11050E-02   -0.24618E-03  5716   0.160E-01    0.144E-02
RMM:   3    -0.300070038964E+03   -0.13449E-05   -0.89121E-05  3023   0.251E-02
  20 F= -.30007004E+03 E0= -.30007002E+03  d E =-.782140E-04
 BRION: g(F)=  0.348E-04 g(S)=  0.000E+00 retain N=  2 mean eig= 3.74
 eig:   0.273  7.212
 reached required accuracy - stopping structural energy minimisation
 writing wavefunctions
