 running on   32 total cores
 distrk:  each k-point on   32 cores,    1 groups
 distr:  one band on    8 cores,    4 groups
 using from now: INCAR     
 vasp.5.4.1 05Feb16 (build Dec 31 2016 05:41:53) complex                        
  
 POSCAR found type information on POSCAR  O  Sn
 POSCAR found :  2 types and      49 ions
 scaLAPACK will be used

 ----------------------------------------------------------------------------- 
|                                                                             |
|  ADVICE TO THIS USER RUNNING 'VASP/VAMP'   (HEAR YOUR MASTER'S VOICE ...):  |
|                                                                             |
|      You have a (more or less) 'large supercell' and for larger cells       |
|      it might be more efficient to use real space projection opertators     |
|      So try LREAL= Auto  in the INCAR   file.                               |
|      Mind: At the moment your POTCAR file does not contain real space       |
|       projectors, and has to be modified,  BUT if you                       |
|      want to do an extremely  accurate calculation you might also keep the  |
|      reciprocal projection scheme          (i.e. LREAL=.FALSE.)             |
|                                                                             |
 ----------------------------------------------------------------------------- 

 LDA part: xc-table for Pade appr. of Perdew
 POSCAR, INCAR and KPOINTS ok, starting setup
 FFT: planning ...
 WAVECAR not read
 entering main loop
       N       E                     dE             d eps       ncg     rms          rms(c)
RMM:   1     0.165924903908E+02    0.16592E+02   -0.23803E+05  2560   0.235E+03
RMM:   2     0.549594229796E+03    0.53300E+03   -0.46334E+04  2560   0.432E+02
RMM:   3    -0.138039585810E+03   -0.68763E+03   -0.12968E+04  2560   0.206E+02
RMM:   4    -0.276739723843E+03   -0.13870E+03   -0.53026E+03  6204   0.160E+02
RMM:   5    -0.345849091251E+03   -0.69109E+02   -0.63440E+02  6453   0.387E+01BRMIX: very serious problems
 the old and the new charge density differ
 old charge density:   422.00000 new  423.00000
    0.420E+01
RMM:   6    -0.303773472724E+03    0.42076E+02   -0.20559E+02  6115   0.254E+01    0.173E+01
RMM:   7    -0.305411281759E+03   -0.16378E+01   -0.36674E+01  6411   0.863E+00    0.102E+01
RMM:   8    -0.305503845943E+03   -0.92564E-01   -0.58171E+00  6158   0.424E+00    0.613E+00
RMM:   9    -0.305428654617E+03    0.75191E-01   -0.16795E+00  6125   0.283E+00    0.254E+00
RMM:  10    -0.305322451102E+03    0.10620E+00   -0.68650E-01  6129   0.151E+00    0.108E+00
RMM:  11    -0.305325338191E+03   -0.28871E-02   -0.10322E-01  6737   0.513E-01    0.494E-01
RMM:  12    -0.305326418973E+03   -0.10808E-02   -0.18207E-02  6177   0.242E-01    0.339E-01
RMM:  13    -0.305324929125E+03    0.14898E-02   -0.82888E-03  5899   0.169E-01    0.766E-02
RMM:  14    -0.305324949935E+03   -0.20810E-04   -0.72093E-04  4583   0.467E-02
   1 F= -.30532495E+03 E0= -.30529000E+03  d E =-.305325E+03
 BRION: g(F)=  0.299E+01 g(S)=  0.000E+00
 bond charge predicted
       N       E                     dE             d eps       ncg     rms          rms(c)
RMM:   1    -0.338583485621E+03   -0.33259E+02   -0.10942E+03  5403   0.547E+01    0.667E+00
RMM:   2    -0.308051474724E+03    0.30532E+02   -0.59159E+01  6110   0.234E+01    0.625E+00
RMM:   3    -0.307359428662E+03    0.69205E+00   -0.17624E+00  6858   0.303E+00    0.345E+00
RMM:   4    -0.307192738259E+03    0.16669E+00   -0.30837E-01  6110   0.104E+00    0.200E+00
RMM:   5    -0.307136650128E+03    0.56088E-01   -0.30566E-01  6101   0.892E-01    0.605E-01
RMM:   6    -0.307134441397E+03    0.22087E-02   -0.28574E-02  6111   0.322E-01    0.240E-01
RMM:   7    -0.307134323016E+03    0.11838E-03   -0.45864E-03  6051   0.140E-01    0.138E-01
RMM:   8    -0.307134204074E+03    0.11894E-03   -0.36802E-04  4508   0.427E-02    0.635E-02
RMM:   9    -0.307134158876E+03    0.45198E-04   -0.46385E-04  4783   0.392E-02
   2 F= -.30713416E+03 E0= -.30710662E+03  d E =-.180921E+01
 BRION: g(F)=  0.956E+00 g(S)=  0.000E+00 retain N=  1 mean eig= 0.83
 eig:   0.834
 bond charge predicted
       N       E                     dE             d eps       ncg     rms          rms(c)
RMM:   1    -0.311261047781E+03   -0.41268E+01   -0.21737E+02  5569   0.284E+01    0.336E+00
RMM:   2    -0.307490031851E+03    0.37710E+01   -0.11852E+01  6110   0.110E+01    0.183E+00
RMM:   3    -0.307516244494E+03   -0.26213E-01   -0.98152E-01  6825   0.203E+00    0.140E+00
RMM:   4    -0.307513544088E+03    0.27004E-02   -0.28511E-02  6119   0.474E-01    0.106E+00
RMM:   5    -0.307510507052E+03    0.30370E-02   -0.70415E-03  6049   0.216E-01    0.518E-01
RMM:   6    -0.307509007572E+03    0.14995E-02   -0.13225E-02  6018   0.303E-01    0.264E-01
RMM:   7    -0.307509038651E+03   -0.31079E-04   -0.82635E-04  5516   0.668E-02
   3 F= -.30750904E+03 E0= -.30748132E+03  d E =-.374880E+00
 BRION: g(F)=  0.549E+00 g(S)=  0.000E+00 retain N=  2 mean eig= 0.57
 eig:   0.566  0.566
 bond charge predicted
       N       E                     dE             d eps       ncg     rms          rms(c)
RMM:   1    -0.311977391564E+03   -0.44684E+01   -0.14136E+02  5259   0.213E+01    0.209E+00
RMM:   2    -0.307745796465E+03    0.42316E+01   -0.83810E+00  6110   0.950E+00    0.109E+00
RMM:   3    -0.307747037095E+03   -0.12406E-02   -0.33105E-01  6844   0.127E+00    0.812E-01
RMM:   4    -0.307744459030E+03    0.25781E-02   -0.10291E-02  6109   0.264E-01    0.587E-01
RMM:   5    -0.307742963863E+03    0.14952E-02   -0.47464E-03  6055   0.166E-01    0.203E-01
RMM:   6    -0.307742682060E+03    0.28180E-03   -0.25737E-03  6077   0.117E-01    0.619E-02
RMM:   7    -0.307742684834E+03   -0.27739E-05   -0.18980E-04  3175   0.312E-02
   4 F= -.30774268E+03 E0= -.30771501E+03  d E =-.233646E+00
 BRION: g(F)=  0.943E-01 g(S)=  0.000E+00 retain N=  3 mean eig= 1.70
 eig:   0.756  2.172  2.172
 bond charge predicted
       N       E                     dE             d eps       ncg     rms          rms(c)
RMM:   1    -0.308776015121E+03   -0.10333E+01   -0.35853E+01  5120   0.108E+01    0.881E-01
RMM:   2    -0.307806805333E+03    0.96921E+00   -0.18482E+00  6110   0.447E+00    0.381E-01
RMM:   3    -0.307807684825E+03   -0.87949E-03   -0.61841E-02  6818   0.562E-01    0.342E-01
RMM:   4    -0.307807435172E+03    0.24965E-03   -0.18248E-03  5931   0.103E-01    0.252E-01
RMM:   5    -0.307807227861E+03    0.20731E-03   -0.74513E-04  4981   0.586E-02    0.953E-02
RMM:   6    -0.307807130346E+03    0.97515E-04   -0.65584E-04  4933   0.513E-02
   5 F= -.30780713E+03 E0= -.30777947E+03  d E =-.644455E-01
 BRION: g(F)=  0.409E-01 g(S)=  0.000E+00 retain N=  4 mean eig= 2.35
 eig:   3.932  3.932  0.759  0.759
 bond charge predicted
       N       E                     dE             d eps       ncg     rms          rms(c)
RMM:   1    -0.308295574743E+03   -0.48835E+00   -0.18363E+01  5120   0.773E+00    0.630E-01
RMM:   2    -0.307839842631E+03    0.45573E+00   -0.88936E-01  6110   0.308E+00    0.281E-01
RMM:   3    -0.307840659933E+03   -0.81730E-03   -0.30422E-02  6799   0.383E-01    0.239E-01
RMM:   4    -0.307840594776E+03    0.65157E-04   -0.92693E-04  5315   0.703E-02
   6 F= -.30784059E+03 E0= -.30781296E+03  d E =-.334644E-01
 BRION: g(F)=  0.218E-01 g(S)=  0.000E+00 retain N=  5 mean eig= 2.68
 eig:   5.395  5.395  0.902  0.902  0.829
 bond charge predicted
       N       E                     dE             d eps       ncg     rms          rms(c)
RMM:   1    -0.308401027225E+03   -0.56037E+00   -0.23568E+01  5120   0.883E+00    0.653E-01
RMM:   2    -0.307868685945E+03    0.53234E+00   -0.98356E-01  6110   0.321E+00    0.291E-01
RMM:   3    -0.307868814862E+03   -0.12892E-03   -0.30314E-02  6814   0.398E-01    0.246E-01
RMM:   4    -0.307868715953E+03    0.98909E-04   -0.98259E-04  5585   0.725E-02
   7 F= -.30786872E+03 E0= -.30784111E+03  d E =-.281212E-01
 BRION: g(F)=  0.964E-02 g(S)=  0.000E+00 retain N=  6 mean eig= 3.28
 eig:   7.273  7.273  1.635  1.635  0.926  0.926
 bond charge predicted
       N       E                     dE             d eps       ncg     rms          rms(c)
RMM:   1    -0.308206800890E+03   -0.33799E+00   -0.17074E+01  5120   0.777E+00    0.575E-01
RMM:   2    -0.307884490397E+03    0.32231E+00   -0.66249E-01  6110   0.265E+00    0.245E-01
WARNING in EDDRMM: call to ZHEGV failed, returncode =   6  3 52
RMM:   3    -0.307885516424E+03   -0.10260E-02   -0.25958E-02  6787   0.354E-01    0.233E-01
RMM:   4    -0.307885525087E+03   -0.86634E-05   -0.77602E-04  5102   0.633E-02
   8 F= -.30788553E+03 E0= -.30785795E+03  d E =-.168091E-01
 BRION: g(F)=  0.525E-02 g(S)=  0.000E+00 retain N=  6 mean eig= 3.06
 eig:   6.204  6.204  2.106  2.106  0.871  0.871
 bond charge predicted
       N       E                     dE             d eps       ncg     rms          rms(c)
RMM:   1    -0.308046680456E+03   -0.16116E+00   -0.77077E+00  5120   0.526E+00    0.420E-01
RMM:   2    -0.307893958367E+03    0.15272E+00   -0.30632E-01  6110   0.180E+00    0.169E-01
RMM:   3    -0.307894386633E+03   -0.42827E-03   -0.11587E-02  6755   0.242E-01    0.145E-01
RMM:   4    -0.307894397127E+03   -0.10494E-04   -0.39795E-04  4085   0.438E-02
   9 F= -.30789440E+03 E0= -.30786684E+03  d E =-.887204E-02
 BRION: g(F)=  0.356E-02 g(S)=  0.000E+00 retain N=  6 mean eig= 3.15
 eig:   7.010  7.010  1.562  1.562  0.890  0.890
 bond charge predicted
       N       E                     dE             d eps       ncg     rms          rms(c)
RMM:   1    -0.307993181668E+03   -0.98795E-01   -0.48580E+00  5120   0.424E+00    0.344E-01
RMM:   2    -0.307900083060E+03    0.93099E-01   -0.19828E-01  6110   0.144E+00    0.129E-01
RMM:   3    -0.307900511578E+03   -0.42852E-03   -0.85526E-03  6671   0.203E-01    0.127E-01
RMM:   4    -0.307900528398E+03   -0.16820E-04   -0.27704E-04  3401   0.365E-02
  10 F= -.30790053E+03 E0= -.30787298E+03  d E =-.613127E-02
 BRION: g(F)=  0.244E-02 g(S)=  0.000E+00 retain N=  6 mean eig= 3.67
 eig:   7.972  7.972  2.091  2.091  0.943  0.943
 bond charge predicted
       N       E                     dE             d eps       ncg     rms          rms(c)
RMM:   1    -0.308029663907E+03   -0.12915E+00   -0.66752E+00  5120   0.501E+00    0.431E-01
RMM:   2    -0.307905808789E+03    0.12386E+00   -0.27246E-01  6109   0.169E+00    0.154E-01
RMM:   3    -0.307906446244E+03   -0.63746E-03   -0.12517E-02  6744   0.243E-01    0.144E-01
RMM:   4    -0.307906471732E+03   -0.25488E-04   -0.38082E-04  3757   0.425E-02
  11 F= -.30790647E+03 E0= -.30787894E+03  d E =-.594333E-02
 BRION: g(F)=  0.154E-02 g(S)=  0.000E+00 retain N=  5 mean eig= 4.31
 eig:   7.865  7.865  2.339  2.339  1.156
 bond charge predicted
       N       E                     dE             d eps       ncg     rms          rms(c)
RMM:   1    -0.308051558236E+03   -0.14511E+00   -0.71198E+00  5120   0.513E+00    0.443E-01
RMM:   2    -0.307910326966E+03    0.14123E+00   -0.29570E-01  6110   0.177E+00    0.161E-01
RMM:   3    -0.307910935575E+03   -0.60861E-03   -0.12372E-02  6752   0.245E-01    0.142E-01
RMM:   4    -0.307910952735E+03   -0.17160E-04   -0.39604E-04  3888   0.434E-02
  12 F= -.30791095E+03 E0= -.30788343E+03  d E =-.448100E-02
 BRION: g(F)=  0.849E-03 g(S)=  0.000E+00 retain N=  3 mean eig= 3.68
 eig:   4.966  4.966  1.113
 bond charge predicted
       N       E                     dE             d eps       ncg     rms          rms(c)
RMM:   1    -0.307999061016E+03   -0.88125E-01   -0.44319E+00  5120   0.408E+00    0.352E-01
RMM:   2    -0.307912913352E+03    0.86148E-01   -0.18716E-01  6110   0.141E+00    0.126E-01
RMM:   3    -0.307913365784E+03   -0.45243E-03   -0.84191E-03  6682   0.200E-01    0.124E-01
RMM:   4    -0.307913374405E+03   -0.86206E-05   -0.26315E-04  3335   0.361E-02
  13 F= -.30791337E+03 E0= -.30788587E+03  d E =-.242167E-02
 BRION: g(F)=  0.487E-03 g(S)=  0.000E+00 retain N=  3 mean eig= 3.90
 eig:   5.240  5.240  1.225
 bond charge predicted
       N       E                     dE             d eps       ncg     rms          rms(c)
RMM:   1    -0.307943363653E+03   -0.29998E-01   -0.15025E+00  5120   0.238E+00    0.218E-01
RMM:   2    -0.307914259062E+03    0.29105E-01   -0.65420E-02  6109   0.830E-01    0.783E-02
RMM:   3    -0.307914432533E+03   -0.17347E-03   -0.31503E-03  6155   0.121E-01    0.751E-02
RMM:   4    -0.307914435459E+03   -0.29259E-05   -0.12074E-04  3253   0.268E-02
  14 F= -.30791444E+03 E0= -.30788694E+03  d E =-.106105E-02
 BRION: g(F)=  0.321E-03 g(S)=  0.000E+00 retain N=  3 mean eig= 3.65
 eig:   4.931  4.931  1.100
 bond charge predicted
       N       E                     dE             d eps       ncg     rms          rms(c)
RMM:   1    -0.307926393439E+03   -0.11961E-01   -0.64712E-01  5125   0.158E+00    0.148E-01
RMM:   2    -0.307914927505E+03    0.11466E-01   -0.27937E-02  6111   0.538E-01    0.516E-02
RMM:   3    -0.307915020191E+03   -0.92686E-04   -0.14895E-03  5450   0.820E-02    0.498E-02
RMM:   4    -0.307915021492E+03   -0.13010E-05   -0.10547E-04  3369   0.269E-02
  15 F= -.30791502E+03 E0= -.30788753E+03  d E =-.586033E-03
 BRION: g(F)=  0.186E-03 g(S)=  0.000E+00 retain N=  4 mean eig= 4.76
 eig:   7.978  7.978  1.539  1.539
 bond charge predicted
       N       E                     dE             d eps       ncg     rms          rms(c)
RMM:   1    -0.307924554757E+03   -0.95346E-02   -0.49464E-01  5123   0.138E+00    0.123E-01
RMM:   2    -0.307915367192E+03    0.91876E-02   -0.21395E-02  6110   0.470E-01    0.425E-02
RMM:   3    -0.307915424052E+03   -0.56860E-04   -0.10644E-03  4925   0.707E-02    0.384E-02
RMM:   4    -0.307915425648E+03   -0.15963E-05   -0.12004E-04  3448   0.309E-02
  16 F= -.30791543E+03 E0= -.30788794E+03  d E =-.404156E-03
 BRION: g(F)=  0.133E-03 g(S)=  0.000E+00 retain N=  4 mean eig= 4.06
 eig:   6.728  6.728  1.397  1.397
 bond charge predicted
       N       E                     dE             d eps       ncg     rms          rms(c)
RMM:   1    -0.307918149302E+03   -0.27252E-02   -0.12368E-01  5123   0.675E-01    0.587E-02
RMM:   2    -0.307915599949E+03    0.25494E-02   -0.53632E-03  5778   0.234E-01    0.212E-02
RMM:   3    -0.307915603247E+03   -0.32984E-05   -0.18581E-04  3189   0.358E-02
  17 F= -.30791560E+03 E0= -.30788812E+03  d E =-.177599E-03
 BRION: g(F)=  0.120E-03 g(S)=  0.000E+00 retain N=  4 mean eig= 3.59
 eig:   6.472  6.472  0.714  0.714
 bond charge predicted
       N       E                     dE             d eps       ncg     rms          rms(c)
RMM:   1    -0.307920207140E+03   -0.46072E-02   -0.21125E-01  5120   0.880E-01    0.661E-02
RMM:   2    -0.307915781520E+03    0.44256E-02   -0.92467E-03  5946   0.308E-01    0.260E-02
RMM:   3    -0.307915801259E+03   -0.19739E-04   -0.39398E-04  3957   0.442E-02
  18 F= -.30791580E+03 E0= -.30788832E+03  d E =-.198011E-03
 BRION: g(F)=  0.755E-04 g(S)=  0.000E+00 retain N=  4 mean eig= 4.52
 eig:   7.664  7.664  1.377  1.377
 bond charge predicted
       N       E                     dE             d eps       ncg     rms          rms(c)
RMM:   1    -0.307916742299E+03   -0.96078E-03   -0.32042E-02  5144   0.324E-01    0.250E-02
RMM:   2    -0.307915884124E+03    0.85818E-03   -0.18504E-03  5616   0.138E-01    0.164E-02
RMM:   3    -0.307915880867E+03    0.32568E-05   -0.84164E-05  3088   0.240E-02
  19 F= -.30791588E+03 E0= -.30788840E+03  d E =-.796083E-04
 BRION: g(F)=  0.611E-04 g(S)=  0.000E+00 retain N=  2 mean eig= 3.83
 eig:   0.685  6.984
 bond charge predicted
       N       E                     dE             d eps       ncg     rms          rms(c)
RMM:   1    -0.307916278663E+03   -0.39454E-03   -0.10747E-02  5165   0.171E-01    0.179E-02
RMM:   2    -0.307915916709E+03    0.36195E-03   -0.66456E-04  4632   0.756E-02    0.102E-02
RMM:   3    -0.307915910868E+03    0.58408E-05   -0.60735E-05  3076   0.162E-02
  20 F= -.30791591E+03 E0= -.30788843E+03  d E =-.300007E-04
 BRION: g(F)=  0.844E-04 g(S)=  0.000E+00 retain N=  2 mean eig= 0.36
 eig:   0.253  0.462
 bond charge predicted
       N       E                     dE             d eps       ncg     rms          rms(c)
RMM:   1    -0.307915919735E+03   -0.30262E-05   -0.37733E-04  4085   0.426E-02    0.554E-03
RMM:   2    -0.307915918923E+03    0.81132E-06   -0.18337E-05  2768   0.145E-02
  21 F= -.30791592E+03 E0= -.30788844E+03  d E =-.805577E-05
 BRION: g(F)=  0.271E-04 g(S)=  0.000E+00 retain N=  3 mean eig= 1.84
 eig:   4.180  0.822  0.511
 reached required accuracy - stopping structural energy minimisation
 writing wavefunctions
