 running on   32 total cores
 distrk:  each k-point on   32 cores,    1 groups
 distr:  one band on    8 cores,    4 groups
 using from now: INCAR     
 vasp.5.4.1 05Feb16 (build Dec 31 2016 05:41:53) complex                        
  
 POSCAR found type information on POSCAR  O  Sn F 
 POSCAR found :  3 types and      49 ions
 scaLAPACK will be used

 ----------------------------------------------------------------------------- 
|                                                                             |
|  ADVICE TO THIS USER RUNNING 'VASP/VAMP'   (HEAR YOUR MASTER'S VOICE ...):  |
|                                                                             |
|      You have a (more or less) 'large supercell' and for larger cells       |
|      it might be more efficient to use real space projection opertators     |
|      So try LREAL= Auto  in the INCAR   file.                               |
|      Mind: At the moment your POTCAR file does not contain real space       |
|       projectors, and has to be modified,  BUT if you                       |
|      want to do an extremely  accurate calculation you might also keep the  |
|      reciprocal projection scheme          (i.e. LREAL=.FALSE.)             |
|                                                                             |
 ----------------------------------------------------------------------------- 

 LDA part: xc-table for Pade appr. of Perdew
 POSCAR, INCAR and KPOINTS ok, starting setup
 WARNING: small aliasing (wrap around) errors must be expected
 FFT: planning ...
 WAVECAR not read
 entering main loop
       N       E                     dE             d eps       ncg     rms          rms(c)
RMM:   1     0.490295411615E+02    0.49030E+02   -0.23881E+05  2560   0.236E+03
RMM:   2     0.554016284538E+03    0.50499E+03   -0.46696E+04  2560   0.433E+02
RMM:   3    -0.131591459874E+03   -0.68561E+03   -0.13115E+04  2560   0.207E+02
RMM:   4    -0.280073577474E+03   -0.14848E+03   -0.53103E+03  6222   0.161E+02
RMM:   5    -0.351340799828E+03   -0.71267E+02   -0.67879E+02  6546   0.388E+01    0.414E+01
RMM:   6    -0.310722926094E+03    0.40618E+02   -0.20340E+02  6126   0.249E+01    0.168E+01
RMM:   7    -0.312387898058E+03   -0.16650E+01   -0.28415E+01  6517   0.804E+00    0.947E+00
RMM:   8    -0.312750428242E+03   -0.36253E+00   -0.60224E+00  6119   0.540E+00    0.322E+00
RMM:   9    -0.312564584785E+03    0.18584E+00   -0.16404E+00  6117   0.247E+00    0.408E-01
RMM:  10    -0.312591551984E+03   -0.26967E-01   -0.26249E-01  7243   0.663E-01    0.484E-01
RMM:  11    -0.312591817752E+03   -0.26577E-03   -0.55181E-02  6107   0.362E-01    0.155E-01
RMM:  12    -0.312592394967E+03   -0.57721E-03   -0.10856E-02  5463   0.837E-02    0.140E-01
RMM:  13    -0.312592059618E+03    0.33535E-03   -0.60245E-03  5288   0.111E-01    0.357E-02
RMM:  14    -0.312592067511E+03   -0.78933E-05   -0.10255E-03  3138   0.317E-02    0.163E-02
RMM:  15    -0.312592078997E+03   -0.11486E-04   -0.36336E-04  3032   0.171E-02
   1 F= -.31259208E+03 E0= -.31256802E+03  d E =-.312592E+03
 curvature:   0.00 expect dE= 0.000E+00 dE for cont linesearch  0.000E+00
 trial: gam= 0.00000 g(F)=  0.331E+01 g(S)=  0.000E+00 ort = 0.000E+00 (trialstep = 0.100E+01)
 search vector abs. value=  0.331E+01
 bond charge predicted
       N       E                     dE             d eps       ncg     rms          rms(c)
RMM:   1    -0.306879845022E+03    0.57122E+01   -0.51764E+02  5886   0.361E+01    0.184E+01
RMM:   2    -0.330965235857E+03   -0.24085E+02   -0.19366E+02  6122   0.229E+01    0.204E+01
RMM:   3    -0.319340714305E+03    0.11625E+02   -0.58422E+00  6609   0.404E+00    0.148E+01
RMM:   4    -0.315898553524E+03    0.34422E+01   -0.32168E+00  6114   0.269E+00    0.805E+00
RMM:   5    -0.315832418982E+03    0.66135E-01   -0.31637E-01  6266   0.886E-01    0.880E+00
RMM:   6    -0.314751064888E+03    0.10814E+01   -0.10264E+00  6101   0.141E+00    0.386E+00
RMM:   7    -0.314669467929E+03    0.81597E-01   -0.98988E-02  6028   0.478E-01    0.333E+00
RMM:   8    -0.314371583770E+03    0.29788E+00   -0.57607E-01  6060   0.108E+00    0.140E+00
RMM:   9    -0.314351144241E+03    0.20440E-01   -0.93211E-02  6327   0.399E-01    0.119E+00
RMM:  10    -0.314343240218E+03    0.79040E-02   -0.77743E-03  5940   0.159E-01    0.975E-01
RMM:  11    -0.314330696631E+03    0.12544E-01   -0.60087E-03  5715   0.113E-01    0.741E-01
RMM:  12    -0.314320706709E+03    0.99899E-02   -0.91494E-03  5826   0.134E-01    0.506E-01
RMM:  13    -0.314314132751E+03    0.65740E-02   -0.12977E-02  5916   0.157E-01    0.139E-01
RMM:  14    -0.314313793287E+03    0.33946E-03   -0.42580E-03  5526   0.904E-02    0.467E-02
RMM:  15    -0.314313995406E+03   -0.20212E-03   -0.97590E-04  4919   0.451E-02    0.842E-02
RMM:  16    -0.314313815149E+03    0.18026E-03   -0.20965E-04  3387   0.263E-02    0.414E-02
RMM:  17    -0.314313760441E+03    0.54707E-04   -0.21907E-04  3532   0.221E-02
   2 F= -.31431376E+03 E0= -.31428634E+03  d E =-.172168E+01
 trial-energy change:   -1.721681  1 .order   -1.768464   -3.314065   -0.222863
 step:   1.0799(harm=  1.0721)  dis= 0.23833  next Energy=  -314.322644 (dE=-0.173E+01)
 bond charge predicted
       N       E                     dE             d eps       ncg     rms          rms(c)
RMM:   1    -0.314491042298E+03   -0.17723E+00   -0.74331E+00  5121   0.436E+00    0.313E-01
RMM:   2    -0.314323253889E+03    0.16779E+00   -0.27928E-01  6110   0.163E+00    0.152E-01
RMM:   3    -0.314322997681E+03    0.25621E-03   -0.71090E-03  6462   0.178E-01    0.100E-01
RMM:   4    -0.314322939905E+03    0.57776E-04   -0.40183E-04  3768   0.397E-02
   3 F= -.31432294E+03 E0= -.31429559E+03  d E =-.173086E+01
 curvature:  -0.53 expect dE=-0.525E+00 dE for cont linesearch -0.125E-04
 trial: gam= 0.29664 g(F)=  0.992E+00 g(S)=  0.000E+00 ort = 0.885E-02 (trialstep = 0.102E+01)
 search vector abs. value=  0.129E+01
 bond charge predicted
       N       E                     dE             d eps       ncg     rms          rms(c)
RMM:   1    -0.332361831830E+03   -0.18039E+02   -0.51648E+02  5322   0.374E+01    0.559E+00
RMM:   2    -0.314946005595E+03    0.17416E+02   -0.37727E+01  6110   0.187E+01    0.411E+00
RMM:   3    -0.314645795332E+03    0.30021E+00   -0.15307E+00  6867   0.272E+00    0.228E+00
RMM:   4    -0.314583392277E+03    0.62403E-01   -0.11075E-01  6082   0.716E-01    0.142E+00
RMM:   5    -0.314545547511E+03    0.37845E-01   -0.98962E-02  6070   0.577E-01    0.484E-01
RMM:   6    -0.314544100451E+03    0.14471E-02   -0.21147E-02  6107   0.293E-01    0.217E-01
RMM:   7    -0.314543971044E+03    0.12941E-03   -0.29388E-03  6040   0.114E-01    0.160E-01
RMM:   8    -0.314543804441E+03    0.16660E-03   -0.55155E-04  5030   0.510E-02    0.690E-02
RMM:   9    -0.314543775008E+03    0.29434E-04   -0.12845E-04  3041   0.269E-02
   4 F= -.31454378E+03 E0= -.31451435E+03  d E =-.220835E+00
 trial-energy change:   -0.220835  1 .order   -0.282577   -1.010473    0.445320
 step:   0.6453(harm=  0.7052)  dis= 0.05464  next Energy=  -314.628015 (dE=-0.305E+00)
 bond charge predicted
       N       E                     dE             d eps       ncg     rms          rms(c)
RMM:   1    -0.316675866950E+03   -0.21321E+01   -0.67143E+01  5236   0.140E+01    0.136E+00
RMM:   2    -0.314642089809E+03    0.20338E+01   -0.37994E+00  6110   0.607E+00    0.810E-01
RMM:   3    -0.314634641205E+03    0.74486E-02   -0.12565E-01  6869   0.784E-01    0.478E-01
RMM:   4    -0.314633290592E+03    0.13506E-02   -0.46727E-03  6086   0.159E-01    0.311E-01
RMM:   5    -0.314632597424E+03    0.69317E-03   -0.28885E-03  6041   0.110E-01    0.960E-02
RMM:   6    -0.314632529156E+03    0.68268E-04   -0.58364E-04  4999   0.521E-02
   5 F= -.31463253E+03 E0= -.31460529E+03  d E =-.309589E+00
 curvature:  -0.44 expect dE=-0.683E-01 dE for cont linesearch -0.191E-05
 trial: gam= 0.17333 g(F)=  0.155E+00 g(S)=  0.000E+00 ort =-0.237E-02 (trialstep = 0.942E+00)
 search vector abs. value=  0.193E+00
 bond charge predicted
       N       E                     dE             d eps       ncg     rms          rms(c)
RMM:   1    -0.317305213602E+03   -0.26726E+01   -0.72320E+01  5160   0.143E+01    0.134E+00
RMM:   2    -0.314706187261E+03    0.25990E+01   -0.46682E+00  6110   0.702E+00    0.566E-01
RMM:   3    -0.314705808230E+03    0.37903E-03   -0.13193E-01  6827   0.823E-01    0.494E-01
RMM:   4    -0.314705360568E+03    0.44766E-03   -0.37728E-03  6159   0.149E-01    0.368E-01
RMM:   5    -0.314704928100E+03    0.43247E-03   -0.21164E-03  5957   0.106E-01    0.837E-02
RMM:   6    -0.314704858811E+03    0.69289E-04   -0.56774E-04  5050   0.544E-02
   6 F= -.31470486E+03 E0= -.31467758E+03  d E =-.723297E-01
 trial-energy change:   -0.072330  1 .order   -0.071532   -0.145794    0.002730
 step:   0.9251(harm=  0.9245)  dis= 0.03303  next Energy=  -314.704883 (dE=-0.724E-01)
 bond charge predicted
       N       E                     dE             d eps       ncg     rms          rms(c)
RMM:   1    -0.314705705339E+03   -0.77724E-03   -0.22763E-02  5184   0.251E-01    0.226E-02
RMM:   2    -0.314704858474E+03    0.84687E-03   -0.15522E-03  5183   0.126E-01    0.114E-02
RMM:   3    -0.314704851739E+03    0.67349E-05   -0.57393E-05  3057   0.184E-02
   7 F= -.31470485E+03 E0= -.31467757E+03  d E =-.723226E-01
 curvature:  -0.58 expect dE=-0.275E-01 dE for cont linesearch -0.155E-04
 trial: gam= 0.29242 g(F)=  0.477E-01 g(S)=  0.000E+00 ort = 0.228E-02 (trialstep = 0.938E+00)
 search vector abs. value=  0.655E-01
 bond charge predicted
       N       E                     dE             d eps       ncg     rms          rms(c)
RMM:   1    -0.315365288902E+03   -0.66043E+00   -0.21935E+01  5123   0.835E+00    0.714E-01
RMM:   2    -0.314728581943E+03    0.63671E+00   -0.12132E+00  6110   0.360E+00    0.293E-01
RMM:   3    -0.314729493933E+03   -0.91199E-03   -0.40214E-02  6826   0.456E-01    0.265E-01
RMM:   4    -0.314729439992E+03    0.53940E-04   -0.10735E-03  5502   0.768E-02    0.195E-01
RMM:   5    -0.314729300704E+03    0.13929E-03   -0.92870E-04  5187   0.692E-02    0.528E-02
RMM:   6    -0.314729297399E+03    0.33059E-05   -0.10587E-04  3115   0.268E-02
   8 F= -.31472930E+03 E0= -.31470201E+03  d E =-.244457E-01
 trial-energy change:   -0.024446  1 .order   -0.024125   -0.045385   -0.002864
 step:   1.0017(harm=  1.0017)  dis= 0.01155  next Energy=  -314.729073 (dE=-0.242E-01)
 bond charge predicted
       N       E                     dE             d eps       ncg     rms          rms(c)
RMM:   1    -0.314732322474E+03   -0.30218E-02   -0.10025E-01  5122   0.564E-01    0.564E-02
RMM:   2    -0.314729433785E+03    0.28887E-02   -0.55576E-03  5775   0.242E-01    0.222E-02
RMM:   3    -0.314729432771E+03    0.10142E-05   -0.14959E-04  3211   0.339E-02
   9 F= -.31472943E+03 E0= -.31470214E+03  d E =-.245810E-01
 curvature:  -0.68 expect dE=-0.175E-01 dE for cont linesearch -0.258E-08
 trial: gam= 0.55296 g(F)=  0.258E-01 g(S)=  0.000E+00 ort =-0.158E-04 (trialstep = 0.951E+00)
 search vector abs. value=  0.459E-01
 bond charge predicted
       N       E                     dE             d eps       ncg     rms          rms(c)
RMM:   1    -0.315127192819E+03   -0.39776E+00   -0.15192E+01  5120   0.690E+00    0.495E-01
RMM:   2    -0.314745433138E+03    0.38176E+00   -0.68648E-01  6110   0.269E+00    0.205E-01
RMM:   3    -0.314745501992E+03   -0.68854E-04   -0.19351E-02  6768   0.324E-01    0.191E-01
RMM:   4    -0.314745478197E+03    0.23795E-04   -0.62846E-04  4804   0.568E-02
  10 F= -.31474548E+03 E0= -.31471812E+03  d E =-.160454E-01
 trial-energy change:   -0.016045  1 .order   -0.015903   -0.024566   -0.007239
 step:   1.3485(harm=  1.3485)  dis= 0.01737  next Energy=  -314.746848 (dE=-0.174E-01)
 bond charge predicted
       N       E                     dE             d eps       ncg     rms          rms(c)
RMM:   1    -0.314811678938E+03   -0.66177E-01   -0.26081E+00  5120   0.287E+00    0.225E-01
RMM:   2    -0.314746843917E+03    0.64835E-01   -0.11726E-01  6110   0.112E+00    0.912E-02
RMM:   3    -0.314746876230E+03   -0.32314E-04   -0.34821E-03  6311   0.136E-01    0.743E-02
RMM:   4    -0.314746874273E+03    0.19576E-05   -0.16851E-04  3256   0.301E-02
  11 F= -.31474687E+03 E0= -.31471949E+03  d E =-.174415E-01
 curvature:  -1.20 expect dE=-0.130E-01 dE for cont linesearch -0.552E-05
 trial: gam= 0.44194 g(F)=  0.109E-01 g(S)=  0.000E+00 ort =-0.460E-03 (trialstep = 0.103E+01)
 search vector abs. value=  0.194E-01
 bond charge predicted
       N       E                     dE             d eps       ncg     rms          rms(c)
RMM:   1    -0.315002849784E+03   -0.25597E+00   -0.80742E+00  5120   0.492E+00    0.384E-01
RMM:   2    -0.314752064476E+03    0.25079E+00   -0.43436E-01  6110   0.214E+00    0.151E-01
RMM:   3    -0.314752016103E+03    0.48372E-04   -0.10505E-02  6825   0.242E-01    0.131E-01
RMM:   4    -0.314751998555E+03    0.17549E-04   -0.36802E-04  3925   0.403E-02
  12 F= -.31475200E+03 E0= -.31472460E+03  d E =-.512428E-02
 trial-energy change:   -0.005124  1 .order   -0.005065   -0.011009    0.000880
 step:   0.9543(harm=  0.9543)  dis= 0.00737  next Energy=  -314.751971 (dE=-0.510E-02)
 bond charge predicted
       N       E                     dE             d eps       ncg     rms          rms(c)
RMM:   1    -0.314753200963E+03   -0.11849E-02   -0.44717E-02  5120   0.371E-01    0.231E-02
RMM:   2    -0.314751998085E+03    0.12029E-02   -0.21500E-03  5613   0.151E-01    0.102E-02
RMM:   3    -0.314751992551E+03    0.55343E-05   -0.48820E-05  3022   0.189E-02
  13 F= -.31475199E+03 E0= -.31472460E+03  d E =-.511828E-02
 curvature:  -0.87 expect dE=-0.488E-02 dE for cont linesearch -0.433E-05
 trial: gam= 0.47593 g(F)=  0.562E-02 g(S)=  0.000E+00 ort = 0.311E-03 (trialstep = 0.102E+01)
 search vector abs. value=  0.103E-01
 bond charge predicted
       N       E                     dE             d eps       ncg     rms          rms(c)
RMM:   1    -0.314865594833E+03   -0.11360E+00   -0.38895E+00  5120   0.359E+00    0.305E-01
RMM:   2    -0.314755776516E+03    0.10982E+00   -0.20404E-01  6110   0.148E+00    0.108E-01
RMM:   3    -0.314755938575E+03   -0.16206E-03   -0.62528E-03  6605   0.183E-01    0.102E-01
RMM:   4    -0.314755936848E+03    0.17262E-05   -0.20996E-04  3290   0.335E-02
  14 F= -.31475594E+03 E0= -.31472854E+03  d E =-.394430E-02
 trial-energy change:   -0.003944  1 .order   -0.003857   -0.005858   -0.001857
 step:   1.4865(harm=  1.4865)  dis= 0.00817  next Energy=  -314.756281 (dE=-0.429E-02)
 bond charge predicted
       N       E                     dE             d eps       ncg     rms          rms(c)
RMM:   1    -0.314780881771E+03   -0.24943E-01   -0.84109E-01  5120   0.166E+00    0.154E-01
RMM:   2    -0.314756458885E+03    0.24423E-01   -0.45282E-02  6110   0.697E-01    0.555E-02
RMM:   3    -0.314756494926E+03   -0.36041E-04   -0.14106E-03  5656   0.871E-02    0.412E-02
RMM:   4    -0.314756493027E+03    0.18987E-05   -0.11573E-04  3241   0.284E-02
  15 F= -.31475649E+03 E0= -.31472909E+03  d E =-.450048E-02
 curvature:  -1.33 expect dE=-0.589E-02 dE for cont linesearch -0.185E-06
 trial: gam= 0.77800 g(F)=  0.443E-02 g(S)=  0.000E+00 ort = 0.379E-04 (trialstep = 0.107E+01)
 search vector abs. value=  0.107E-01
 bond charge predicted
       N       E                     dE             d eps       ncg     rms          rms(c)
RMM:   1    -0.314863546323E+03   -0.10705E+00   -0.42150E+00  5128   0.382E+00    0.343E-01
RMM:   2    -0.314759126693E+03    0.10442E+00   -0.22083E-01  6110   0.153E+00    0.119E-01
RMM:   3    -0.314759561980E+03   -0.43529E-03   -0.88039E-03  6682   0.206E-01    0.131E-01
RMM:   4    -0.314759572412E+03   -0.10432E-04   -0.23294E-04  3340   0.357E-02
  16 F= -.31475957E+03 E0= -.31473216E+03  d E =-.307939E-02
 trial-energy change:   -0.003079  1 .order   -0.002772   -0.004757   -0.000788
 step:   1.2784(harm=  1.2784)  dis= 0.00758  next Energy=  -314.759343 (dE=-0.285E-02)
 reached required accuracy - stopping structural energy minimisation
 writing wavefunctions
