 running on   32 total cores
 distrk:  each k-point on   32 cores,    1 groups
 distr:  one band on    8 cores,    4 groups
 using from now: INCAR     
 vasp.5.4.1 05Feb16 (build Dec 31 2016 05:41:53) complex                        
  
 POSCAR found type information on POSCAR  O  Sn
 POSCAR found :  2 types and      49 ions
 scaLAPACK will be used

 ----------------------------------------------------------------------------- 
|                                                                             |
|  ADVICE TO THIS USER RUNNING 'VASP/VAMP'   (HEAR YOUR MASTER'S VOICE ...):  |
|                                                                             |
|      You have a (more or less) 'large supercell' and for larger cells       |
|      it might be more efficient to use real space projection opertators     |
|      So try LREAL= Auto  in the INCAR   file.                               |
|      Mind: At the moment your POTCAR file does not contain real space       |
|       projectors, and has to be modified,  BUT if you                       |
|      want to do an extremely  accurate calculation you might also keep the  |
|      reciprocal projection scheme          (i.e. LREAL=.FALSE.)             |
|                                                                             |
 ----------------------------------------------------------------------------- 

 LDA part: xc-table for Pade appr. of Perdew
 POSCAR, INCAR and KPOINTS ok, starting setup
 WARNING: small aliasing (wrap around) errors must be expected
 FFT: planning ...
 WAVECAR not read
 entering main loop
       N       E                     dE             d eps       ncg     rms          rms(c)
RMM:   1     0.132474751038E+03    0.13247E+03   -0.23989E+05  2560   0.242E+03
RMM:   2     0.454911994428E+03    0.32244E+03   -0.46495E+04  2560   0.433E+02
RMM:   3    -0.161493837360E+03   -0.61641E+03   -0.12821E+04  2560   0.209E+02
RMM:   4    -0.303215015642E+03   -0.14172E+03   -0.52473E+03  6181   0.162E+02
RMM:   5    -0.375965400342E+03   -0.72750E+02   -0.67450E+02  6575   0.402E+01BRMIX: very serious problems
 the old and the new charge density differ
 old charge density:   430.00000 new  426.00004
    0.415E+01
RMM:   6    -0.336525706602E+03    0.39440E+02   -0.19403E+02  6095   0.247E+01    0.177E+01
RMM:   7    -0.338049929743E+03   -0.15242E+01   -0.37720E+01  6491   0.905E+00    0.995E+00
RMM:   8    -0.338163111842E+03   -0.11318E+00   -0.97563E+00  6094   0.628E+00    0.408E+00
RMM:   9    -0.337988930077E+03    0.17418E+00   -0.18086E+00  6388   0.237E+00    0.145E+00
RMM:  10    -0.338017277272E+03   -0.28347E-01   -0.99883E-01  6197   0.156E+00    0.106E+00
RMM:  11    -0.337989996799E+03    0.27280E-01   -0.13752E-01  6505   0.610E-01    0.400E-01
RMM:  12    -0.337991568527E+03   -0.15717E-02   -0.34718E-02  6507   0.249E-01    0.204E-01
RMM:  13    -0.337991831006E+03   -0.26248E-03   -0.86506E-03  5663   0.131E-01    0.751E-02
RMM:  14    -0.337992147621E+03   -0.31661E-03   -0.24199E-03  5099   0.726E-02    0.460E-02
RMM:  15    -0.337992187685E+03   -0.40064E-04   -0.77222E-04  4105   0.448E-02
   1 F= -.33799219E+03 E0= -.33797872E+03  d E =-.337992E+03
 BRION: g(F)=  0.129E+02 g(S)=  0.000E+00
 bond charge predicted
       N       E                     dE             d eps       ncg     rms          rms(c)
RMM:   1    -0.349697897631E+03   -0.11706E+02   -0.30530E+03  6252   0.112E+02    0.231E+01
RMM:   2    -0.358232822450E+03   -0.85349E+01   -0.27506E+02  6111   0.345E+01    0.202E+01
RMM:   3    -0.348808647123E+03    0.94242E+01   -0.10588E+01  6656   0.799E+00    0.143E+01
RMM:   4    -0.344216472123E+03    0.45922E+01   -0.96544E+00  6343   0.534E+00    0.513E+00
RMM:   5    -0.343676060931E+03    0.54041E+00   -0.15535E+00  6083   0.192E+00    0.255E+00
RMM:   6    -0.343538236361E+03    0.13782E+00   -0.53144E-01  6106   0.116E+00    0.168E+00
RMM:   7    -0.343477619424E+03    0.60617E-01   -0.30485E-01  6106   0.839E-01    0.338E-01
RMM:   8    -0.343479676332E+03   -0.20569E-02   -0.42866E-02  6958   0.302E-01    0.309E-01
RMM:   9    -0.343478074139E+03    0.16022E-02   -0.71604E-03  5925   0.173E-01    0.888E-02
RMM:  10    -0.343478068844E+03    0.52943E-05   -0.63798E-04  4858   0.516E-02
   2 F= -.34347807E+03 E0= -.34347807E+03  d E =-.548588E+01
 BRION: g(F)=  0.153E+02 g(S)=  0.000E+00 retain N=  1 mean eig= 0.46
 eig:   0.462
 bond charge predicted
       N       E                     dE             d eps       ncg     rms          rms(c)
RMM:   1    -0.348511044092E+03   -0.50330E+01   -0.96062E+02  6601   0.701E+01    0.110E+01
RMM:   2    -0.346473335898E+03    0.20377E+01   -0.36809E+01  6077   0.146E+01    0.322E+00
RMM:   3    -0.346664644714E+03   -0.19131E+00   -0.47809E+00  6707   0.448E+00    0.400E+00
RMM:   4    -0.346622879555E+03    0.41765E-01   -0.28081E-01  6498   0.107E+00    0.286E+00
RMM:   5    -0.346548556749E+03    0.74323E-01   -0.22095E-01  6069   0.925E-01    0.671E-01
RMM:   6    -0.346543980220E+03    0.45765E-02   -0.50828E-02  6292   0.375E-01    0.823E-01
RMM:   7    -0.346543205409E+03    0.77481E-03   -0.66719E-03  6018   0.209E-01    0.187E-01
RMM:   8    -0.346543274113E+03   -0.68703E-04   -0.22276E-03  5776   0.118E-01    0.194E-01
WARNING in EDDRMM: call to ZHEGV failed, returncode =   6  3 51
RMM:   9    -0.346543233089E+03    0.41024E-04   -0.50337E-04  4341   0.590E-02
   3 F= -.34654323E+03 E0= -.34654323E+03  d E =-.306516E+01
 BRION: g(F)=  0.305E+01 g(S)=  0.000E+00 retain N=  2 mean eig= 2.24
 eig:   0.252  4.229
 bond charge predicted
       N       E                     dE             d eps       ncg     rms          rms(c)
RMM:   1    -0.374160548301E+03   -0.27617E+02   -0.10432E+03  5614   0.560E+01    0.647E+00
RMM:   2    -0.348663885927E+03    0.25497E+02   -0.51422E+01  6080   0.211E+01    0.395E+00
RMM:   3    -0.348064765758E+03    0.59912E+00   -0.20376E+00  6865   0.371E+00    0.243E+00
RMM:   4    -0.347974168734E+03    0.90597E-01   -0.25339E-01  6074   0.999E-01    0.113E+00
RMM:   5    -0.347959113035E+03    0.15056E-01   -0.88256E-02  6164   0.526E-01    0.415E-01
RMM:   6    -0.347957984629E+03    0.11284E-02   -0.10022E-02  6404   0.207E-01    0.165E-01
RMM:   7    -0.347958032198E+03   -0.47569E-04   -0.12093E-03  5297   0.664E-02    0.918E-02
RMM:   8    -0.347957939845E+03    0.92353E-04   -0.47567E-04  4851   0.456E-02
   4 F= -.34795794E+03 E0= -.34795794E+03  d E =-.141471E+01
 BRION: g(F)=  0.105E+01 g(S)=  0.000E+00 retain N=  3 mean eig= 2.27
 eig:   5.210  0.746  0.859
 bond charge predicted
       N       E                     dE             d eps       ncg     rms          rms(c)
RMM:   1    -0.354262778355E+03   -0.63047E+01   -0.17743E+02  5390   0.225E+01    0.233E+00
RMM:   2    -0.348406671788E+03    0.58561E+01   -0.11298E+01  6080   0.103E+01    0.104E+00
RMM:   3    -0.348344362554E+03    0.62309E-01   -0.43509E-01  6930   0.167E+00    0.915E-01
RMM:   4    -0.348341595780E+03    0.27668E-02   -0.14106E-02  6081   0.320E-01    0.651E-01
RMM:   5    -0.348340134188E+03    0.14616E-02   -0.79061E-03  6070   0.210E-01    0.869E-02
RMM:   6    -0.348340118990E+03    0.15198E-04   -0.10876E-03  5430   0.676E-02    0.384E-02
RMM:   7    -0.348340116502E+03    0.24875E-05   -0.11768E-04  3093   0.279E-02
   5 F= -.34834012E+03 E0= -.34834012E+03  d E =-.382177E+00
 BRION: g(F)=  0.406E+00 g(S)=  0.000E+00 retain N=  4 mean eig= 2.87
 eig:   5.244  5.244  0.761  0.244
 bond charge predicted
       N       E                     dE             d eps       ncg     rms          rms(c)
RMM:   1    -0.358183227688E+03   -0.98431E+01   -0.31024E+02  5122   0.312E+01    0.322E+00
RMM:   2    -0.348871964626E+03    0.93113E+01   -0.19451E+01  6080   0.141E+01    0.167E+00
RMM:   3    -0.348757621267E+03    0.11434E+00   -0.85228E-01  6927   0.242E+00    0.127E+00
RMM:   4    -0.348751399802E+03    0.62215E-02   -0.27039E-02  6062   0.465E-01    0.875E-01
RMM:   5    -0.348748683254E+03    0.27165E-02   -0.20386E-02  6087   0.308E-01    0.132E-01
RMM:   6    -0.348748852007E+03   -0.16875E-03   -0.23839E-03  6115   0.111E-01    0.747E-02
RMM:   7    -0.348748811103E+03    0.40904E-04   -0.30916E-04  4322   0.413E-02
   6 F= -.34874881E+03 E0= -.34874881E+03  d E =-.408695E+00
 BRION: g(F)=  0.217E+00 g(S)=  0.000E+00 retain N=  5 mean eig= 2.44
 eig:   5.234  5.234  0.474  0.875  0.398
 bond charge predicted
       N       E                     dE             d eps       ncg     rms          rms(c)
RMM:   1    -0.357555031709E+03   -0.88062E+01   -0.26170E+02  5125   0.275E+01    0.265E+00
RMM:   2    -0.349066211252E+03    0.84888E+01   -0.15869E+01  6080   0.125E+01    0.140E+00
RMM:   3    -0.348982587832E+03    0.83623E-01   -0.50832E-01  6893   0.185E+00    0.953E-01
RMM:   4    -0.348977495759E+03    0.50921E-02   -0.20651E-02  6083   0.370E-01    0.621E-01
RMM:   5    -0.348976124566E+03    0.13712E-02   -0.11622E-02  6014   0.239E-01    0.127E-01
RMM:   6    -0.348976223234E+03   -0.98669E-04   -0.14356E-03  5711   0.837E-02    0.468E-02
RMM:   7    -0.348976226518E+03   -0.32839E-05   -0.20696E-04  3304   0.335E-02
   7 F= -.34897623E+03 E0= -.34897623E+03  d E =-.227415E+00
 BRION: g(F)=  0.874E-01 g(S)=  0.000E+00 retain N=  4 mean eig= 1.28
 eig:   1.607  1.607  0.947  0.947
 bond charge predicted
       N       E                     dE             d eps       ncg     rms          rms(c)
RMM:   1    -0.349921585690E+03   -0.94536E+00   -0.30584E+01  5120   0.979E+00    0.795E-01
RMM:   2    -0.349046104000E+03    0.87548E+00   -0.17377E+00  6080   0.422E+00    0.331E-01
RMM:   3    -0.349040242206E+03    0.58618E-02   -0.63187E-02  6920   0.663E-01    0.316E-01
RMM:   4    -0.349040104506E+03    0.13770E-03   -0.17085E-03  5667   0.109E-01    0.236E-01
RMM:   5    -0.349039946565E+03    0.15794E-03   -0.11818E-03  5432   0.771E-02    0.693E-02
RMM:   6    -0.349039944441E+03    0.21239E-05   -0.14705E-04  3153   0.288E-02
   8 F= -.34903994E+03 E0= -.34903994E+03  d E =-.637179E-01
 BRION: g(F)=  0.589E-01 g(S)=  0.000E+00 retain N=  5 mean eig= 1.27
 eig:   2.177  2.177  0.669  0.669  0.637
 bond charge predicted
       N       E                     dE             d eps       ncg     rms          rms(c)
RMM:   1    -0.349923888888E+03   -0.88394E+00   -0.29679E+01  5120   0.946E+00    0.757E-01
RMM:   2    -0.349099216392E+03    0.82467E+00   -0.15662E+00  6080   0.395E+00    0.315E-01
RMM:   3    -0.349093191806E+03    0.60246E-02   -0.52305E-02  6919   0.599E-01    0.279E-01
RMM:   4    -0.349093003127E+03    0.18868E-03   -0.15074E-03  5471   0.983E-02    0.205E-01
RMM:   5    -0.349092851537E+03    0.15159E-03   -0.10156E-03  5173   0.732E-02    0.365E-02
RMM:   6    -0.349092849953E+03    0.15844E-05   -0.13389E-04  3068   0.279E-02
   9 F= -.34909285E+03 E0= -.34909285E+03  d E =-.529055E-01
 BRION: g(F)=  0.401E-01 g(S)=  0.000E+00 retain N=  6 mean eig= 1.99
 eig:   4.377  4.377  0.757  0.757  0.831  0.831
 bond charge predicted
       N       E                     dE             d eps       ncg     rms          rms(c)
RMM:   1    -0.352986041793E+03   -0.38932E+01   -0.14617E+02  5120   0.213E+01    0.173E+00
RMM:   2    -0.349220803193E+03    0.37652E+01   -0.72803E+00  6080   0.848E+00    0.980E-01
RMM:   3    -0.349185790551E+03    0.35013E-01   -0.23473E-01  6914   0.127E+00    0.681E-01
RMM:   4    -0.349182935327E+03    0.28552E-02   -0.10769E-02  6055   0.244E-01    0.436E-01
RMM:   5    -0.349182033112E+03    0.90222E-03   -0.99124E-03  6045   0.188E-01    0.697E-02
RMM:   6    -0.349182009898E+03    0.23214E-04   -0.44501E-04  4613   0.506E-02
  10 F= -.34918201E+03 E0= -.34918201E+03  d E =-.891599E-01
 BRION: g(F)=  0.163E-01 g(S)=  0.000E+00 retain N=  7 mean eig= 3.05
 eig:   7.644  7.644  1.026  1.026  1.422  1.422  1.144
 bond charge predicted
       N       E                     dE             d eps       ncg     rms          rms(c)
RMM:   1    -0.349918586054E+03   -0.73655E+00   -0.29230E+01  5120   0.972E+00    0.715E-01
RMM:   2    -0.349212861109E+03    0.70572E+00   -0.13849E+00  6080   0.375E+00    0.311E-01
RMM:   3    -0.349207965211E+03    0.48959E-02   -0.48371E-02  6907   0.579E-01    0.278E-01
RMM:   4    -0.349207853090E+03    0.11212E-03   -0.14705E-03  5439   0.974E-02    0.205E-01
RMM:   5    -0.349207770617E+03    0.82473E-04   -0.88278E-04  5042   0.699E-02
  11 F= -.34920777E+03 E0= -.34920777E+03  d E =-.257607E-01
 BRION: g(F)=  0.967E-02 g(S)=  0.000E+00 retain N=  7 mean eig= 3.10
 eig:   6.937  6.937  2.504  2.504  0.712  1.070  1.070
 bond charge predicted
       N       E                     dE             d eps       ncg     rms          rms(c)
RMM:   1    -0.349690492897E+03   -0.48264E+00   -0.19704E+01  5120   0.796E+00    0.595E-01
RMM:   2    -0.349227197588E+03    0.46330E+00   -0.90629E-01  6080   0.302E+00    0.245E-01
RMM:   3    -0.349224210999E+03    0.29866E-02   -0.31416E-02  6910   0.464E-01    0.210E-01
RMM:   4    -0.349224160846E+03    0.50154E-04   -0.10412E-03  5047   0.776E-02    0.153E-01
RMM:   5    -0.349224119337E+03    0.41509E-04   -0.48419E-04  4797   0.516E-02
  12 F= -.34922412E+03 E0= -.34922412E+03  d E =-.163487E-01
 BRION: g(F)=  0.548E-02 g(S)=  0.000E+00 retain N=  3 mean eig= 3.37
 eig:   4.406  4.406  1.304
 bond charge predicted
       N       E                     dE             d eps       ncg     rms          rms(c)
RMM:   1    -0.349541829441E+03   -0.31767E+00   -0.13205E+01  5120   0.653E+00    0.489E-01
RMM:   2    -0.349236264427E+03    0.30557E+00   -0.60044E-01  6080   0.246E+00    0.194E-01
RMM:   3    -0.349234568244E+03    0.16962E-02   -0.20842E-02  6902   0.375E-01    0.172E-01
RMM:   4    -0.349234564001E+03    0.42434E-05   -0.74108E-04  4474   0.609E-02
  13 F= -.34923456E+03 E0= -.34923456E+03  d E =-.104447E-01
 BRION: g(F)=  0.382E-02 g(S)=  0.000E+00 retain N=  3 mean eig= 3.57
 eig:   4.733  4.733  1.238
 bond charge predicted
       N       E                     dE             d eps       ncg     rms          rms(c)
RMM:   1    -0.349380993884E+03   -0.14643E+00   -0.60916E+00  5120   0.441E+00    0.354E-01
RMM:   2    -0.349241349316E+03    0.13964E+00   -0.27767E-01  6080   0.167E+00    0.139E-01
RMM:   3    -0.349240679413E+03    0.66990E-03   -0.98111E-03  6856   0.254E-01    0.114E-01
WARNING in EDDRMM: call to ZHEGV failed, returncode =   8  4 51
RMM:   4    -0.349240688854E+03   -0.94414E-05   -0.38014E-04  3925   0.414E-02
  14 F= -.34924069E+03 E0= -.34924069E+03  d E =-.612485E-02
 BRION: g(F)=  0.291E-02 g(S)=  0.000E+00 retain N=  3 mean eig= 2.92
 eig:   3.757  3.757  1.249
 bond charge predicted
       N       E                     dE             d eps       ncg     rms          rms(c)
RMM:   1    -0.349429842581E+03   -0.18916E+00   -0.80460E+00  5120   0.509E+00    0.399E-01
RMM:   2    -0.349247148248E+03    0.18269E+00   -0.36452E-01  6080   0.190E+00    0.155E-01
RMM:   3    -0.349246384974E+03    0.76327E-03   -0.13008E-02  6889   0.290E-01    0.134E-01
WARNING in EDDRMM: call to ZHEGV failed, returncode =   6  3 44
RMM:   4    -0.349246402535E+03   -0.17561E-04   -0.48609E-04  4040   0.457E-02
  15 F= -.34924640E+03 E0= -.34924640E+03  d E =-.571368E-02
 BRION: g(F)=  0.221E-02 g(S)=  0.000E+00 retain N=  3 mean eig= 3.36
 eig:   4.390  4.390  1.293
 bond charge predicted
       N       E                     dE             d eps       ncg     rms          rms(c)
RMM:   1    -0.349397917581E+03   -0.15153E+00   -0.62598E+00  5120   0.446E+00    0.360E-01
RMM:   2    -0.349251340782E+03    0.14658E+00   -0.28774E-01  6080   0.169E+00    0.139E-01
RMM:   3    -0.349250718636E+03    0.62215E-03   -0.99454E-03  6859   0.255E-01    0.113E-01
RMM:   4    -0.349250733384E+03   -0.14748E-04   -0.39071E-04  3835   0.405E-02
  16 F= -.34925073E+03 E0= -.34925073E+03  d E =-.433085E-02
 BRION: g(F)=  0.156E-02 g(S)=  0.000E+00 retain N=  3 mean eig= 4.10
 eig:   5.572  5.572  1.154
 reached required accuracy - stopping structural energy minimisation
 writing wavefunctions
