 vasp.5.4.1 05Feb16 (build Dec 31 2016 05:41:53) complex                        
  
 executed on           IFC91_ompi date 2017.08.16  02:27:15
 running on   32 total cores
 distrk:  each k-point on   32 cores,    1 groups
 distr:  one band on NCORES_PER_BAND=   8 cores,    4 groups


--------------------------------------------------------------------------------------------------------


 INCAR:
 POTCAR:    PAW_PBE O 08Apr2002                   
 POTCAR:    PAW_PBE Sn_d 06Sep2000                
 POTCAR:    PAW_PBE O 08Apr2002                   
   VRHFIN =O: s2p4                                                              
   LEXCH  = PE                                                                  
   EATOM  =   432.3788 eV,   31.7789 Ry                                         
                                                                                
   TITEL  = PAW_PBE O 08Apr2002                                                 
   LULTRA =        F    use ultrasoft PP ?                                      
   IUNSCR =        1    unscreen: 0-lin 1-nonlin 2-no                           
   RPACOR =    1.200    partial core radius                                     
   POMASS =   16.000; ZVAL   =    6.000    mass and valenz                      
   RCORE  =    1.520    outmost cutoff radius                                   
   RWIGS  =    1.550; RWIGS  =    0.820    wigner-seitz radius (au A)           
   ENMAX  =  400.000; ENMIN  =  300.000 eV                                      
   ICORE  =        2    local potential                                         
   LCOR   =        T    correct aug charges                                     
   LPAW   =        T    paw PP                                                  
   EAUG   =  605.392                                                            
   DEXC   =    0.000                                                            
   RMAX   =    1.553    core radius for proj-oper                               
   RAUG   =    1.300    factor for augmentation sphere                          
   RDEP   =    1.550    radius for radial grids                                 
   RDEPT  =    1.329    core radius for aug-charge                              
                                                                                
   Atomic configuration                                                         
    4 entries                                                                   
     n  l   j            E        occ.                                          
     1  0  0.50      -514.6923   2.0000                                         
     2  0  0.50       -23.9615   2.0000                                         
     2  1  0.50        -9.0305   4.0000                                         
     3  2  1.50        -9.5241   0.0000                                         
   Description                                                                  
     l       E           TYP  RCUT    TYP  RCUT                                 
     0    -23.9615318     23  1.200                                             
     0     -9.5240782     23  1.200                                             
     1     -9.0304911     23  1.520                                             
     1      8.1634956     23  1.520                                             
     2     -9.5240782      7  1.500                                             
  local pseudopotential read in
  partial core-charges read in
  partial kinetic energy density read in
  kinetic energy density of atom read in
  atomic valenz-charges read in
  non local Contribution for L=           0  read in
    real space projection operators read in
  non local Contribution for L=           0  read in
    real space projection operators read in
  non local Contribution for L=           1  read in
    real space projection operators read in
  non local Contribution for L=           1  read in
    real space projection operators read in
    PAW grid and wavefunctions read in
 
   number of l-projection  operators is LMAX  =           4
   number of lm-projection operators is LMMAX =           8
 
 POTCAR:    PAW_PBE Sn_d 06Sep2000                
   VRHFIN =Sn: s2p2                                                             
   LEXCH  = PE                                                                  
   EATOM  =  1893.1092 eV,  139.1396 Ry                                         
                                                                                
   TITEL  = PAW_PBE Sn_d 06Sep2000                                              
   LULTRA =        F    use ultrasoft PP ?                                      
   IUNSCR =        1    unscreen: 0-lin 1-nonlin 2-no                           
   RPACOR =    2.300    partial core radius                                     
   POMASS =  118.710; ZVAL   =   14.000    mass and valenz                      
   RCORE  =    2.500    outmost cutoff radius                                   
   RWIGS  =    2.960; RWIGS  =    1.566    wigner-seitz radius (au A)           
   ENMAX  =  241.083; ENMIN  =  180.812 eV                                      
   ICORE  =        3    local potential                                         
   LCOR   =        T    correct aug charges                                     
   LPAW   =        T    paw PP                                                  
   EAUG   =  439.825                                                            
   DEXC   =    0.000                                                            
   RMAX   =    2.560    core radius for proj-oper                               
   RAUG   =    1.300    factor for augmentation sphere                          
   RDEP   =    2.659    radius for radial grids                                 
   RDEPT  =    2.046    core radius for aug-charge                              
                                                                                
   Atomic configuration                                                         
   12 entries                                                                   
     n  l   j            E        occ.                                          
     1  0  0.50    -29007.2859   2.0000                                         
     2  0  0.50     -4378.8056   2.0000                                         
     2  1  1.50     -3930.4293   6.0000                                         
     3  0  0.50      -845.0264   2.0000                                         
     3  1  1.50      -698.5725   6.0000                                         
     3  2  2.50      -473.2839  10.0000                                         
     4  0  0.50      -133.9036   2.0000                                         
     4  1  1.50       -89.6752   6.0000                                         
     4  2  2.50       -25.8375  10.0000                                         
     5  0  0.50       -10.5484   2.0000                                         
     5  1  0.50        -3.6940   2.0000                                         
     4  3  2.50        -2.7416   0.0000                                         
   Description                                                                  
     l       E           TYP  RCUT    TYP  RCUT                                 
     2    -25.8374624     23  2.500                                             
     2     -5.4423304     23  2.500                                             
     0    -10.5483727     23  2.500                                             
     0     13.6058260     23  2.500                                             
     1     -3.6939829     23  2.500                                             
     1      1.9821976     23  2.500                                             
     3     -1.3605826      7  2.500                                             
  local pseudopotential read in
  partial core-charges read in
  partial kinetic energy density read in
  atomic valenz-charges read in
  non local Contribution for L=           2  read in
    real space projection operators read in
  non local Contribution for L=           2  read in
    real space projection operators read in
  non local Contribution for L=           0  read in
    real space projection operators read in
  non local Contribution for L=           0  read in
    real space projection operators read in
  non local Contribution for L=           1  read in
    real space projection operators read in
  non local Contribution for L=           1  read in
    real space projection operators read in
    PAW grid and wavefunctions read in
 
   number of l-projection  operators is LMAX  =           6
   number of lm-projection operators is LMMAX =          18
 

 ----------------------------------------------------------------------------- 
|                                                                             |
|  ADVICE TO THIS USER RUNNING 'VASP/VAMP'   (HEAR YOUR MASTER'S VOICE ...):  |
|                                                                             |
|      You have a (more or less) 'large supercell' and for larger cells       |
|      it might be more efficient to use real space projection opertators     |
|      So try LREAL= Auto  in the INCAR   file.                               |
|      Mind: At the moment your POTCAR file does not contain real space       |
|       projectors, and has to be modified,  BUT if you                       |
|      want to do an extremely  accurate calculation you might also keep the  |
|      reciprocal projection scheme          (i.e. LREAL=.FALSE.)             |
|                                                                             |
 ----------------------------------------------------------------------------- 

  PAW_PBE O 08Apr2002                   :
 energy of atom  1       EATOM= -432.3788
 kinetic energy error for atom=    0.0258 (will be added to EATOM!!)
  PAW_PBE Sn_d 06Sep2000                :
 energy of atom  2       EATOM=-1893.1092
 kinetic energy error for atom=    0.0038 (will be added to EATOM!!)
 
 
 POSCAR: SnO2                                    
  positions in direct lattice
  velocities in cartesian coordinates
 exchange correlation table for  LEXCH =        8
   RHO(1)=    0.500       N(1)  =     2000
   RHO(2)=  100.500       N(2)  =     4000
 


--------------------------------------------------------------------------------------------------------


 ion  position               nearest neighbor table
   1  0.099  0.904  0.751-  47 2.04  39 2.04  35 2.05
   2  0.403  0.597  0.749-  39 2.03  32 2.04  46 2.04
   3  0.902  0.598  0.750-  33 2.03  42 2.03  37 2.04
   4  0.653  0.153  0.000-  40 2.04  44 2.04  45 2.04
   5  0.847  0.347  0.000-  40 2.04  44 2.04  42 2.04
   6  0.904  0.099  0.249-  47 2.04  44 2.04  35 2.05
   7  0.597  0.403  0.251-  44 2.03  32 2.04  46 2.04
   8  0.653  0.152  0.500-  40 2.04  44 2.04  41 2.04
   9  0.347  0.847  0.500-  41 2.04  39 2.04  43 2.04
  10  0.847  0.347  0.500-  37 2.04  40 2.04  44 2.04
  11  0.597  0.403  0.749-  40 2.03  32 2.04  46 2.04
  12  0.654  0.654  0.000-  46 2.03  36 2.04  33 2.04
  13  0.848  0.848  0.000-  33 2.05  36 2.05  47 2.05
  14  0.902  0.598  0.250-  36 2.03  42 2.03  37 2.04
  15  0.598  0.902  0.250-  36 2.03  45 2.03  41 2.04
  16  0.653  0.653  0.500-  33 2.04  36 2.04  32 2.06
  17  0.848  0.848  0.500-  35 2.03  33 2.04  36 2.04
  18  0.904  0.099  0.751-  47 2.04  40 2.04  35 2.05
  19  0.152  0.653  0.500-  39 2.04  43 2.04  37 2.04
  20  0.598  0.902  0.750-  33 2.03  45 2.03  41 2.04
  21  0.344  0.344  0.500-  32 2.05  34 2.07  38 2.07
  22  0.099  0.904  0.249-  47 2.04  43 2.04  35 2.05
  23  0.403  0.597  0.251-  43 2.03  32 2.04  46 2.04
  24  0.347  0.847  0.000-  39 2.04  43 2.04  45 2.04
  25  0.151  0.151  0.500-  35 2.02  34 2.05  38 2.05
  26  0.153  0.653  0.000-  39 2.04  43 2.04  42 2.04
  27  0.095  0.403  0.248-  42 2.04  37 2.04  34 2.05
  28  0.403  0.095  0.752-  45 2.04  41 2.04  38 2.05
  29  0.095  0.403  0.752-  42 2.04  37 2.04  38 2.05
  30  0.349  0.349  0.000-  46 2.04  38 2.06  34 2.06
  31  0.403  0.095  0.248-  45 2.04  41 2.04  34 2.05
  32  0.498  0.498  0.500-   2 2.04   7 2.04  11 2.04  23 2.04  21 2.05  16 2.06  46 3.15  46 3.15
                            43 3.68  44 3.68  39 3.68  40 3.68  33 3.71  36 3.71  34 3.72  38 3.72
  33  0.750  0.750  0.750-   3 2.03  20 2.03  12 2.04  16 2.04  17 2.04  13 2.05  36 3.15  36 3.16
                            42 3.67  45 3.67  46 3.68  35 3.68  41 3.69  37 3.69  47 3.71  32 3.71
  34  0.247  0.247  0.245-  25 2.05  27 2.05  31 2.05  30 2.06  21 2.07  38 3.09  38 3.22  47 3.61
                            35 3.67  45 3.69  42 3.69  41 3.71  37 3.71  32 3.72  46 3.73
  35  1.000  1.000  0.500-  25 2.02  17 2.03   1 2.05  18 2.05  22 2.05   6 2.05  47 3.15  47 3.15
                            34 3.67  38 3.67  36 3.68  33 3.68  43 3.70  44 3.70  39 3.70  40 3.70
  36  0.750  0.750  0.250-  14 2.03  15 2.03  12 2.04  16 2.04  17 2.04  13 2.05  33 3.15  33 3.16
                            45 3.67  42 3.67  46 3.68  35 3.68  37 3.69  41 3.69  47 3.71  32 3.71
  37  0.999  0.500  0.500-  10 2.04   3 2.04  14 2.04  27 2.04  29 2.04  19 2.04  42 3.15  42 3.15
                            44 3.68  40 3.68  33 3.69  36 3.69  39 3.69  43 3.69  34 3.71  38 3.71
  38  0.247  0.247  0.755-  25 2.05  28 2.05  29 2.05  30 2.06  21 2.07  34 3.09  34 3.22  47 3.61
                            35 3.67  42 3.69  45 3.69  37 3.71  41 3.71  32 3.72  46 3.73
  39  0.251  0.749  0.750-   2 2.03   9 2.04  26 2.04  24 2.04  19 2.04   1 2.04  43 3.15  43 3.15
                            46 3.68  32 3.68  41 3.68  42 3.69  45 3.69  37 3.69  47 3.70  35 3.70
  40  0.749  0.251  0.750-  11 2.03  10 2.04   4 2.04   5 2.04   8 2.04  18 2.04  44 3.15  44 3.15
                            46 3.68  32 3.68  37 3.68  45 3.69  42 3.69  41 3.69  47 3.70  35 3.70
  41  0.500  0.999  0.500-   9 2.04  15 2.04  20 2.04  28 2.04  31 2.04   8 2.04  45 3.15  45 3.15
                            39 3.68  43 3.68  33 3.69  36 3.69  40 3.69  44 3.69  34 3.71  38 3.71
  42  0.999  0.502  0.000-   3 2.03  14 2.03  27 2.04  29 2.04  26 2.04   5 2.04  37 3.15  37 3.15
                            33 3.67  36 3.67  43 3.69  39 3.69  44 3.69  40 3.69  38 3.69  34 3.69
  43  0.251  0.749  0.250-  23 2.03   9 2.04  26 2.04  24 2.04  19 2.04  22 2.04  39 3.15  39 3.15
                            46 3.68  32 3.68  41 3.68  42 3.69  45 3.69  37 3.69  47 3.70  35 3.70
  44  0.749  0.251  0.250-   7 2.03  10 2.04   4 2.04   5 2.04   8 2.04   6 2.04  40 3.15  40 3.15
                            46 3.68  32 3.68  37 3.68  45 3.69  42 3.69  41 3.69  47 3.70  35 3.70
  45  0.502  0.999  0.000-  15 2.03  20 2.03  28 2.04  31 2.04   4 2.04  24 2.04  41 3.15  41 3.15
                            33 3.67  36 3.67  44 3.69  40 3.69  39 3.69  43 3.69  34 3.69  38 3.69
  46  0.501  0.501  0.000-  12 2.03  30 2.04  11 2.04   2 2.04  23 2.04   7 2.04  32 3.15  32 3.15
                            36 3.68  33 3.68  40 3.68  43 3.68  44 3.68  39 3.68  38 3.73  34 3.73
  47  0.002  0.002  0.000-   1 2.04   6 2.04  18 2.04  22 2.04  13 2.05  35 3.15  35 3.15  38 3.61
                            34 3.61  40 3.70  43 3.70  44 3.70  39 3.70  33 3.71  36 3.71
 
  LATTYP: Found a simple tetragonal cell.
 ALAT       =     9.4320271667
 C/A-ratio  =     0.6685526591
  
  Lattice vectors:
  
 A1 = (   9.4320271667,   0.0000000000,   0.0000000000)
 A2 = (   0.0000000000,   9.4320271667,   0.0000000000)
 A3 = (   0.0000000000,   0.0000000000,   6.3058068432)


Analysis of symmetry for initial positions (statically):
=====================================================================
 Subroutine PRICEL returns:
 Original cell was already a primitive cell.
 

 Routine SETGRP: Setting up the symmetry group for a 
 simple tetragonal supercell.


 Subroutine GETGRP returns: Found  4 space group operations
 (whereof  4 operations were pure point group operations)
 out of a pool of 16 trial point group operations.


The static configuration has the point symmetry C_2v.


Analysis of symmetry for dynamics (positions and initial velocities):
=====================================================================
 Subroutine PRICEL returns:
 Original cell was already a primitive cell.
 

 Routine SETGRP: Setting up the symmetry group for a 
 simple tetragonal supercell.


 Subroutine GETGRP returns: Found  4 space group operations
 (whereof  4 operations were pure point group operations)
 out of a pool of 16 trial point group operations.


The dynamic configuration has the point symmetry C_2v.


Analysis of constrained symmetry for selective dynamics:
=====================================================================
 Subroutine PRICEL returns:
 Original cell was already a primitive cell.
 

 Routine SETGRP: Setting up the symmetry group for a 
 simple tetragonal supercell.


 Subroutine GETGRP returns: Found  4 space group operations
 (whereof  4 operations were pure point group operations)
 out of a pool of 16 trial point group operations.


The constrained configuration has the point symmetry C_2v.


 Subroutine INISYM returns: Found  4 space group operations
 (whereof  4 operations are pure point group operations),
 and found     1 'primitive' translations

 
 
 KPOINTS: Automatic mesh                          

Automatic generation of k-mesh.
Space group operators:
 irot       det(A)        alpha          n_x          n_y          n_z        tau_x        tau_y        tau_z
    1     1.000000     0.000000     1.000000     0.000000     0.000000     0.000000     0.000000     0.000000
    2    -1.000000   180.000000     0.000000     0.000000     1.000000     0.000000     0.000000     0.000000
    3     1.000000   180.000000     0.707107     0.707107     0.000000     0.000000     0.000000     0.000000
    4    -1.000000   180.000000     0.707107    -0.707107     0.000000     0.000000     0.000000     0.000000
 
 Subroutine IBZKPT returns following result:
 ===========================================
 
 Found      8 irreducible k-points:
 
 Following reciprocal coordinates:
            Coordinates               Weight
  0.000000  0.000000  0.125000      2.000000
  0.333333  0.000000  0.125000      8.000000
  0.333333  0.333333  0.125000      4.000000
 -0.333333  0.333333  0.125000      4.000000
  0.000000  0.000000  0.375000      2.000000
  0.333333  0.000000  0.375000      8.000000
  0.333333  0.333333  0.375000      4.000000
 -0.333333  0.333333  0.375000      4.000000
 
 Following cartesian coordinates:
            Coordinates               Weight
  0.000000  0.000000  0.019823      2.000000
  0.035341  0.000000  0.019823      8.000000
  0.035341  0.035341  0.019823      4.000000
 -0.035341  0.035341  0.019823      4.000000
  0.000000  0.000000  0.059469      2.000000
  0.035341  0.000000  0.059469      8.000000
  0.035341  0.035341  0.059469      4.000000
 -0.035341  0.035341  0.059469      4.000000
 


--------------------------------------------------------------------------------------------------------




 Dimension of arrays:
   k-points           NKPTS =      8   k-points in BZ     NKDIM =      8   number of bands    NBANDS=    248
   number of dos      NEDOS =    301   number of ions     NIONS =     47
   non local maximal  LDIM  =      6   non local SUM 2l+1 LMDIM =     18
   total plane-waves  NPLWV = 104976
   max r-space proj   IRMAX =      1   max aug-charges    IRDMAX=   8555
   dimension x,y,z NGX =    54 NGY =   54 NGZ =   36
   dimension x,y,z NGXF=   108 NGYF=  108 NGZF=   72
   support grid    NGXF=   108 NGYF=  108 NGZF=   72
   ions per type =              31  16
 NGX,Y,Z   is equivalent  to a cutoff of   9.52,  9.52,  9.49 a.u.
 NGXF,Y,Z  is equivalent  to a cutoff of  19.04, 19.04, 18.98 a.u.


 I would recommend the setting:
   dimension x,y,z NGX =    51 NGY =   51 NGZ =   34
 SYSTEM =  SnO2                                    
 POSCAR =  SnO2                                    

 Startparameter for this run:
   NWRITE =      2    write-flag & timer
   PREC   = normal    normal or accurate (medium, high low for compatibility)
   ISTART =      0    job   : 0-new  1-cont  2-samecut
   ICHARG =      2    charge: 1-file 2-atom 10-const
   ISPIN  =      1    spin polarized calculation?
   LNONCOLLINEAR =      F non collinear calculations
   LSORBIT =      F    spin-orbit coupling
   INIWAV =      1    electr: 0-lowe 1-rand  2-diag
   LASPH  =      F    aspherical Exc in radial PAW
   METAGGA=      F    non-selfconsistent MetaGGA calc.

 Electronic Relaxation 1
   ENCUT  =  480.0 eV  35.28 Ry    5.94 a.u.  16.85 16.85 11.26*2*pi/ulx,y,z
   ENINI  =  480.0     initial cutoff
   ENAUG  =  605.4 eV  augmentation charge cutoff
   NELM   =     60;   NELMIN=  2; NELMDL= -5     # of ELM steps 
   EDIFF  = 0.1E-03   stopping-criterion for ELM
   LREAL  =      F    real-space projection
   NLSPLINE    = F    spline interpolate recip. space projectors
   LCOMPAT=      F    compatible to vasp.4.4
   GGA_COMPAT  = T    GGA compatible to vasp.4.4-vasp.4.6
   LMAXPAW     = -100 max onsite density
   LMAXMIX     =    4 max onsite mixed and CHGCAR
   VOSKOWN=      0    Vosko Wilk Nusair interpolation
   ROPT   =    0.00000   0.00000
 Ionic relaxation
   EDIFFG = -.5E-01   stopping-criterion for IOM
   NSW    =    100    number of steps for IOM
   NBLOCK =      1;   KBLOCK =    100    inner block; outer block 
   IBRION =      2    ionic relax: 0-MD 1-quasi-New 2-CG
   NFREE  =      1    steps in history (QN), initial steepest desc. (CG)
   ISIF   =      2    stress and relaxation
   IWAVPR =     11    prediction:  0-non 1-charg 2-wave 3-comb
   ISYM   =      2    0-nonsym 1-usesym 2-fastsym
   LCORR  =      T    Harris-Foulkes like correction to forces

   POTIM  = 0.5000    time-step for ionic-motion
   TEIN   =    0.0    initial temperature
   TEBEG  =    0.0;   TEEND  =   0.0 temperature during run
   SMASS  =  -3.00    Nose mass-parameter (am)
   estimated Nose-frequenzy (Omega)   =  0.10E-29 period in steps =****** mass=  -0.203E-26a.u.
   SCALEE = 1.0000    scale energy and forces
   NPACO  =    256;   APACO  = 16.0  distance and # of slots for P.C.
   PSTRESS=    0.0 pullay stress

  Mass of Ions in am
   POMASS =  16.00118.71
  Ionic Valenz
   ZVAL   =   6.00 14.00
  Atomic Wigner-Seitz radii
   RWIGS  =  -1.00 -1.00
  virtual crystal weights 
   VCA    =   1.00  1.00
   NELECT =     409.0000    total number of electrons
   NUPDOWN=      -1.0000    fix difference up-down

 DOS related values:
   EMIN   =  10.00;   EMAX   =-10.00  energy-range for DOS
   EFERMI =   0.00
   ISMEAR =     0;   SIGMA  =   0.10  broadening in eV -4-tet -1-fermi 0-gaus

 Electronic relaxation 2 (details)
   IALGO  =     48    algorithm
   LDIAG  =      T    sub-space diagonalisation (order eigenvalues)
   LSUBROT=      F    optimize rotation matrix (better conditioning)
   TURBO    =      0    0=normal 1=particle mesh
   IRESTART =      0    0=no restart 2=restart with 2 vectors
   NREBOOT  =      0    no. of reboots
   NMIN     =      0    reboot dimension
   EREF     =   0.00    reference energy to select bands
   IMIX   =      4    mixing-type and parameters
     AMIX     =   0.40;   BMIX     =  1.00
     AMIX_MAG =   1.60;   BMIX_MAG =  1.00
     AMIN     =   0.10
     WC   =   100.;   INIMIX=   1;  MIXPRE=   1;  MAXMIX= -45

 Intra band minimization:
   WEIMIN = 0.0010     energy-eigenvalue tresh-hold
   EBREAK =  0.10E-06  absolut break condition
   DEPER  =   0.30     relativ break condition  

   TIME   =   0.40     timestep for ELM

  volume/ion in A,a.u.               =      11.94        80.55
  Fermi-wavevector in a.u.,A,eV,Ry     =   1.473440  2.784397 29.538580  2.171024
  Thomas-Fermi vector in A             =   2.588333
 
 Write flags
   LWAVE  =      T    write WAVECAR
   LCHARG =      T    write CHGCAR
   LVTOT  =      F    write LOCPOT, total local potential
   LVHAR  =      F    write LOCPOT, Hartree potential only
   LELF   =      F    write electronic localiz. function (ELF)
   LORBIT =      0    0 simple, 1 ext, 2 COOP (PROOUT)


 Dipole corrections
   LMONO  =      F    monopole corrections only (constant potential shift)
   LDIPOL =      F    correct potential (dipole corrections)
   IDIPOL =      0    1-x, 2-y, 3-z, 4-all directions 
   EPSILON=  1.0000000 bulk dielectric constant

 LDA+U is selected, type is set to LDAUTYPE =  2
   angular momentum for each species LDAUL =    -1    2
   U (eV)           for each species LDAUU =   0.0  4.0
   J (eV)           for each species LDAUJ =   0.0  0.0
 Exchange correlation treatment:
   GGA     =    --    GGA type
   LEXCH   =     8    internal setting for exchange type
   VOSKOWN=      0    Vosko Wilk Nusair interpolation
   LHFCALC =     F    Hartree Fock is set to
   LHFONE  =     F    Hartree Fock one center treatment
   AEXX    =    0.0000 exact exchange contribution

 Linear response parameters
   LEPSILON=     F    determine dielectric tensor
   LRPA    =     F    only Hartree local field effects (RPA)
   LNABLA  =     F    use nabla operator in PAW spheres
   LVEL    =     F    velocity operator in full k-point grid
   LINTERFAST=   F  fast interpolation
   KINTER  =     0    interpolate to denser k-point grid
   CSHIFT  =0.1000    complex shift for real part using Kramers Kronig
   OMEGAMAX=  -1.0    maximum frequency
   DEG_THRESHOLD= 0.2000000E-02 threshold for treating states as degnerate
   RTIME   =    0.100 relaxation time in fs

 Orbital magnetization related:
   ORBITALMAG=     F  switch on orbital magnetization
   LCHIMAG   =     F  perturbation theory with respect to B field
   DQ        =  0.001000  dq finite difference perturbation B field



--------------------------------------------------------------------------------------------------------


 conjugate gradient relaxation of ions
   using selective dynamics as specified on POSCAR
 charge density and potential will be updated during run
 non-spin polarized calculation
 RMM-DIIS sequential band-by-band
 perform sub-space diagonalisation
    before iterative eigenvector-optimisation
 modified Broyden-mixing scheme, WC =      100.0
 initial mixing is a Kerker type mixing with AMIX =  0.4000 and BMIX =      1.0000
 Hartree-type preconditioning will be used
 using additional bands           43
 reciprocal scheme for non local part
 use partial core corrections
 calculate Harris-corrections to forces 
   (improved forces if not selfconsistent)
 use gradient corrections 
 use of overlap-Matrix (Vanderbilt PP)
 Gauss-broadening in eV      SIGMA  =   0.10


--------------------------------------------------------------------------------------------------------


  energy-cutoff  :      480.00
  volume of cell :      560.98
      direct lattice vectors                 reciprocal lattice vectors
     9.432027167  0.000000000  0.000000000     0.106021747  0.000000000  0.000000000
     0.000000000  9.432027167  0.000000000     0.000000000  0.106021747  0.000000000
     0.000000000  0.000000000  6.305806843     0.000000000  0.000000000  0.158583989

  length of vectors
     9.432027167  9.432027167  6.305806843     0.106021747  0.106021747  0.158583989


 
 k-points in units of 2pi/SCALE and weight: Automatic mesh                          
   0.00000000  0.00000000  0.01982300       0.056
   0.03534058  0.00000000  0.01982300       0.222
   0.03534058  0.03534058  0.01982300       0.111
  -0.03534058  0.03534058  0.01982300       0.111
   0.00000000  0.00000000  0.05946900       0.056
   0.03534058  0.00000000  0.05946900       0.222
   0.03534058  0.03534058  0.05946900       0.111
  -0.03534058  0.03534058  0.05946900       0.111
 
 k-points in reciprocal lattice and weights: Automatic mesh                          
   0.00000000  0.00000000  0.12500000       0.056
   0.33333333  0.00000000  0.12500000       0.222
   0.33333333  0.33333333  0.12500000       0.111
  -0.33333333  0.33333333  0.12500000       0.111
   0.00000000  0.00000000  0.37500000       0.056
   0.33333333  0.00000000  0.37500000       0.222
   0.33333333  0.33333333  0.37500000       0.111
  -0.33333333  0.33333333  0.37500000       0.111
 
 position of ions in fractional coordinates (direct lattice) 
   0.09916149  0.90436870  0.75055618
   0.40333428  0.59741514  0.74946468
   0.90249512  0.59775942  0.74958717
   0.65331692  0.15293423  0.00000000
   0.84707950  0.34720147  0.00000000
   0.90436870  0.09916149  0.24944382
   0.59741514  0.40333428  0.25053532
   0.65316166  0.15247829  0.50000000
   0.34691050  0.84698105  0.50000000
   0.84698105  0.34691050  0.50000000
   0.59741514  0.40333428  0.74946468
   0.65368659  0.65368659  0.00000000
   0.84828618  0.84828618  0.00000000
   0.90249512  0.59775942  0.25041283
   0.59775942  0.90249512  0.25041283
   0.65271010  0.65271010  0.50000000
   0.84785813  0.84785813  0.50000000
   0.90436870  0.09916149  0.75055618
   0.15247829  0.65316166  0.50000000
   0.59775942  0.90249512  0.74958717
   0.34423969  0.34423969  0.50000000
   0.09916149  0.90436870  0.24944382
   0.40333428  0.59741514  0.25053532
   0.34720147  0.84707950  0.00000000
   0.15115238  0.15115238  0.50000000
   0.15293423  0.65331692  0.00000000
   0.09486474  0.40281774  0.24820071
   0.40281774  0.09486474  0.75179929
   0.09486474  0.40281774  0.75179929
   0.34850214  0.34850214  0.00000000
   0.40281774  0.09486474  0.24820071
   0.49805891  0.49805891  0.50000000
   0.75024484  0.75024484  0.74968746
   0.24689242  0.24689242  0.24498135
   0.99991246  0.99991246  0.50000000
   0.75024484  0.75024484  0.25031254
   0.99947430  0.49991195  0.50000000
   0.24689242  0.24689242  0.75501865
   0.25075407  0.74949785  0.75006544
   0.74949785  0.25075407  0.75006544
   0.49991195  0.99947430  0.50000000
   0.99872050  0.50178943  0.00000000
   0.25075407  0.74949785  0.24993456
   0.74949785  0.25075407  0.24993456
   0.50178943  0.99872050  0.00000000
   0.50126037  0.50126037  0.00000000
   0.00223656  0.00223656  0.00000000
 
 position of ions in cartesian coordinates  (Angst):
   0.93529386  8.53003017  4.73286227
   3.80425986  5.63483581  4.72597954
   8.51235853  5.63808307  4.72675191
   6.16210297  1.44247980  0.00000000
   7.98967682  3.27481366  0.00000000
   8.53003017  0.93529386  1.57294457
   5.63483581  3.80425986  1.57982730
   6.16063855  1.43817937  3.15290342
   3.27206926  7.98874823  3.15290342
   7.98874823  3.27206926  3.15290342
   5.63483581  3.80425986  4.72597954
   6.16558971  6.16558971  0.00000000
   8.00105825  8.00105825  0.00000000
   8.51235853  5.63808307  1.57905493
   5.63808307  8.51235853  1.57905493
   6.15637941  6.15637941  3.15290342
   7.99702094  7.99702094  3.15290342
   8.53003017  0.93529386  4.73286227
   1.43817937  6.16063855  3.15290342
   5.63808307  8.51235853  4.72675191
   3.24687808  3.24687808  3.15290342
   0.93529386  8.53003017  1.57294457
   3.80425986  5.63483581  1.57982730
   3.27481366  7.98967682  0.00000000
   1.42567340  1.42567340  3.15290342
   1.44247980  6.16210297  0.00000000
   0.89476678  3.79938787  1.56510574
   3.79938787  0.89476678  4.74070110
   0.89476678  3.79938787  4.74070110
   3.28708163  3.28708163  0.00000000
   3.79938787  0.89476678  1.56510574
   4.69770514  4.69770514  3.15290342
   7.07632972  7.07632972  4.72738429
   2.32869598  2.32869598  1.54480507
   9.43120144  9.43120144  3.15290342
   7.07632972  7.07632972  1.57842256
   9.42706876  4.71518312  3.15290342
   2.32869598  2.32869598  4.76100178
   2.36511924  7.06928405  4.72976778
   7.06928405  2.36511924  4.72976778
   4.71518312  9.42706876  3.15290342
   9.41995890  4.73289152  0.00000000
   2.36511924  7.06928405  1.57603906
   7.06928405  2.36511924  1.57603906
   4.73289152  9.41995890  0.00000000
   4.72790146  4.72790146  0.00000000
   0.02109529  0.02109529  0.00000000
 


--------------------------------------------------------------------------------------------------------


 k-point  1 :   0.0000 0.0000 0.1250  plane waves:   13447
 k-point  2 :   0.3333 0.0000 0.1250  plane waves:   13402
 k-point  3 :   0.3333 0.3333 0.1250  plane waves:   13398
 k-point  4 :  -0.3333 0.3333 0.1250  plane waves:   13398
 k-point  5 :   0.0000 0.0000 0.3750  plane waves:   13390
 k-point  6 :   0.3333 0.0000 0.3750  plane waves:   13392
 k-point  7 :   0.3333 0.3333 0.3750  plane waves:   13396
 k-point  8 :  -0.3333 0.3333 0.3750  plane waves:   13396

 maximum and minimum number of plane-waves per node :      1695     1657

 maximum number of plane-waves:     13447
 maximum index in each direction: 
   IXMAX=   17   IYMAX=   16   IZMAX=   11
   IXMIN=  -17   IYMIN=  -17   IZMIN=  -11

 WARNING: aliasing errors must be expected set NGX to  70 to avoid them
 WARNING: aliasing errors must be expected set NGY to  68 to avoid them
 WARNING: aliasing errors must be expected set NGZ to  46 to avoid them
 aliasing errors are usually negligible using standard VASP settings
 and one can safely disregard these warnings

 parallel 3D FFT for wavefunctions:
    minimum data exchange during FFTs selected (reduces bandwidth)
 parallel 3D FFT for charge:
    minimum data exchange during FFTs selected (reduces bandwidth)


 total amount of memory used by VASP on root node    53050. kBytes
========================================================================

   base      :      30000. kBytes
   nonl-proj :       5182. kBytes
   fftplans  :       1450. kBytes
   grid      :       2326. kBytes
   one-center:         93. kBytes
   wavefun   :      13999. kBytes
 
     INWAV:  cpu time    0.0010: real time    0.0004
 Broyden mixing: mesh for mixing (old mesh)
   NGX = 33   NGY = 33   NGZ = 23
  (NGX  =108   NGY  =108   NGZ  = 72)
  gives a total of  25047 points

 initial charge density was supplied:
 charge density of overlapping atoms calculated
 number of electron     410.0000000 magnetization 
 keeping initial charge density in first step


--------------------------------------------------------------------------------------------------------


 Maximum index for augmentation-charges          539 (set IRDMAX)


--------------------------------------------------------------------------------------------------------


 First call to EWALD:  gamma=   0.215
 Maximum number of real-space cells 2x 2x 3
 Maximum number of reciprocal cells 3x 3x 2

 FEWALD executed in parallel
    FEWALD:  cpu time    0.1030: real time    0.1022


----------------------------------------- Iteration    1(   1)  ---------------------------------------


    POTLOK:  cpu time    0.5459: real time    0.6411
    SETDIJ:  cpu time    0.1160: real time    0.1201
atom =  32  type =  2  l = 2
 
 onsite density matrix
 
spin component  1
 
  0.9926  0.0000  0.0000  0.0000  0.0000
  0.0000  0.9926  0.0000  0.0000  0.0000
  0.0000  0.0000  0.9926  0.0000  0.0000
  0.0000  0.0000  0.0000  0.9926  0.0000
  0.0000  0.0000  0.0000  0.0000  0.9926
 
spin component  2
 
  0.9926  0.0000  0.0000  0.0000  0.0000
  0.0000  0.9926  0.0000  0.0000  0.0000
  0.0000  0.0000  0.9926  0.0000  0.0000
  0.0000  0.0000  0.0000  0.9926  0.0000
  0.0000  0.0000  0.0000  0.0000  0.9926
 
 occupancies and eigenvectors
 
  o =  0.9926  v =  1.0000  0.0000  0.0000  0.0000  0.0000  0.0000  0.0000  0.0000  0.0000  0.0000      0.0000  0.0000  0.0000  0.0000  0.0000  0.0000  0.0000  0.0000  0.0000  0.0000
  o =  0.9926  v =  0.0000  1.0000  0.0000  0.0000  0.0000  0.0000  0.0000  0.0000  0.0000  0.0000      0.0000  0.0000  0.0000  0.0000  0.0000  0.0000  0.0000  0.0000  0.0000  0.0000
  o =  0.9926  v =  0.0000  0.0000  1.0000  0.0000  0.0000  0.0000  0.0000  0.0000  0.0000  0.0000      0.0000  0.0000  0.0000  0.0000  0.0000  0.0000  0.0000  0.0000  0.0000  0.0000
  o =  0.9926  v =  0.0000  0.0000  0.0000  1.0000  0.0000  0.0000  0.0000  0.0000  0.0000  0.0000      0.0000  0.0000  0.0000  0.0000  0.0000  0.0000  0.0000  0.0000  0.0000  0.0000
  o =  0.9926  v =  0.0000  0.0000  0.0000  0.0000  1.0000  0.0000  0.0000  0.0000  0.0000  0.0000      0.0000  0.0000  0.0000  0.0000  0.0000  0.0000  0.0000  0.0000  0.0000  0.0000
  o =  0.9926  v =  0.0000  0.0000  0.0000  0.0000  0.0000  1.0000  0.0000  0.0000  0.0000  0.0000      0.0000  0.0000  0.0000  0.0000  0.0000  0.0000  0.0000  0.0000  0.0000  0.0000
  o =  0.9926  v =  0.0000  0.0000  0.0000  0.0000  0.0000  0.0000  1.0000  0.0000  0.0000  0.0000      0.0000  0.0000  0.0000  0.0000  0.0000  0.0000  0.0000  0.0000  0.0000  0.0000
  o =  0.9926  v =  0.0000  0.0000  0.0000  0.0000  0.0000  0.0000  0.0000  1.0000  0.0000  0.0000      0.0000  0.0000  0.0000  0.0000  0.0000  0.0000  0.0000  0.0000  0.0000  0.0000
  o =  0.9926  v =  0.0000  0.0000  0.0000  0.0000  0.0000  0.0000  0.0000  0.0000  1.0000  0.0000      0.0000  0.0000  0.0000  0.0000  0.0000  0.0000  0.0000  0.0000  0.0000  0.0000
  o =  0.9926  v =  0.0000  0.0000  0.0000  0.0000  0.0000  0.0000  0.0000  0.0000  0.0000  1.0000      0.0000  0.0000  0.0000  0.0000  0.0000  0.0000  0.0000  0.0000  0.0000  0.0000
atom =  33  type =  2  l = 2
 
 onsite density matrix
 
spin component  1
 
  0.9926  0.0000  0.0000  0.0000  0.0000
  0.0000  0.9926  0.0000  0.0000  0.0000
  0.0000  0.0000  0.9926  0.0000  0.0000
  0.0000  0.0000  0.0000  0.9926  0.0000
  0.0000  0.0000  0.0000  0.0000  0.9926
 
spin component  2
 
  0.9926  0.0000  0.0000  0.0000  0.0000
  0.0000  0.9926  0.0000  0.0000  0.0000
  0.0000  0.0000  0.9926  0.0000  0.0000
  0.0000  0.0000  0.0000  0.9926  0.0000
  0.0000  0.0000  0.0000  0.0000  0.9926
 
 occupancies and eigenvectors
 
  o =  0.9926  v =  1.0000  0.0000  0.0000  0.0000  0.0000  0.0000  0.0000  0.0000  0.0000  0.0000      0.0000  0.0000  0.0000  0.0000  0.0000  0.0000  0.0000  0.0000  0.0000  0.0000
  o =  0.9926  v =  0.0000  1.0000  0.0000  0.0000  0.0000  0.0000  0.0000  0.0000  0.0000  0.0000      0.0000  0.0000  0.0000  0.0000  0.0000  0.0000  0.0000  0.0000  0.0000  0.0000
  o =  0.9926  v =  0.0000  0.0000  1.0000  0.0000  0.0000  0.0000  0.0000  0.0000  0.0000  0.0000      0.0000  0.0000  0.0000  0.0000  0.0000  0.0000  0.0000  0.0000  0.0000  0.0000
  o =  0.9926  v =  0.0000  0.0000  0.0000  1.0000  0.0000  0.0000  0.0000  0.0000  0.0000  0.0000      0.0000  0.0000  0.0000  0.0000  0.0000  0.0000  0.0000  0.0000  0.0000  0.0000
  o =  0.9926  v =  0.0000  0.0000  0.0000  0.0000  1.0000  0.0000  0.0000  0.0000  0.0000  0.0000      0.0000  0.0000  0.0000  0.0000  0.0000  0.0000  0.0000  0.0000  0.0000  0.0000
  o =  0.9926  v =  0.0000  0.0000  0.0000  0.0000  0.0000  1.0000  0.0000  0.0000  0.0000  0.0000      0.0000  0.0000  0.0000  0.0000  0.0000  0.0000  0.0000  0.0000  0.0000  0.0000
  o =  0.9926  v =  0.0000  0.0000  0.0000  0.0000  0.0000  0.0000  1.0000  0.0000  0.0000  0.0000      0.0000  0.0000  0.0000  0.0000  0.0000  0.0000  0.0000  0.0000  0.0000  0.0000
  o =  0.9926  v =  0.0000  0.0000  0.0000  0.0000  0.0000  0.0000  0.0000  1.0000  0.0000  0.0000      0.0000  0.0000  0.0000  0.0000  0.0000  0.0000  0.0000  0.0000  0.0000  0.0000
  o =  0.9926  v =  0.0000  0.0000  0.0000  0.0000  0.0000  0.0000  0.0000  0.0000  1.0000  0.0000      0.0000  0.0000  0.0000  0.0000  0.0000  0.0000  0.0000  0.0000  0.0000  0.0000
  o =  0.9926  v =  0.0000  0.0000  0.0000  0.0000  0.0000  0.0000  0.0000  0.0000  0.0000  1.0000      0.0000  0.0000  0.0000  0.0000  0.0000  0.0000  0.0000  0.0000  0.0000  0.0000
atom =  34  type =  2  l = 2
 
 onsite density matrix
 
spin component  1
 
  0.9926  0.0000  0.0000  0.0000  0.0000
  0.0000  0.9926  0.0000  0.0000  0.0000
  0.0000  0.0000  0.9926  0.0000  0.0000
  0.0000  0.0000  0.0000  0.9926  0.0000
  0.0000  0.0000  0.0000  0.0000  0.9926
 
spin component  2
 
  0.9926  0.0000  0.0000  0.0000  0.0000
  0.0000  0.9926  0.0000  0.0000  0.0000
  0.0000  0.0000  0.9926  0.0000  0.0000
  0.0000  0.0000  0.0000  0.9926  0.0000
  0.0000  0.0000  0.0000  0.0000  0.9926
 
 occupancies and eigenvectors
 
  o =  0.9926  v =  1.0000  0.0000  0.0000  0.0000  0.0000  0.0000  0.0000  0.0000  0.0000  0.0000      0.0000  0.0000  0.0000  0.0000  0.0000  0.0000  0.0000  0.0000  0.0000  0.0000
  o =  0.9926  v =  0.0000  1.0000  0.0000  0.0000  0.0000  0.0000  0.0000  0.0000  0.0000  0.0000      0.0000  0.0000  0.0000  0.0000  0.0000  0.0000  0.0000  0.0000  0.0000  0.0000
  o =  0.9926  v =  0.0000  0.0000  1.0000  0.0000  0.0000  0.0000  0.0000  0.0000  0.0000  0.0000      0.0000  0.0000  0.0000  0.0000  0.0000  0.0000  0.0000  0.0000  0.0000  0.0000
  o =  0.9926  v =  0.0000  0.0000  0.0000  1.0000  0.0000  0.0000  0.0000  0.0000  0.0000  0.0000      0.0000  0.0000  0.0000  0.0000  0.0000  0.0000  0.0000  0.0000  0.0000  0.0000
  o =  0.9926  v =  0.0000  0.0000  0.0000  0.0000  1.0000  0.0000  0.0000  0.0000  0.0000  0.0000      0.0000  0.0000  0.0000  0.0000  0.0000  0.0000  0.0000  0.0000  0.0000  0.0000
  o =  0.9926  v =  0.0000  0.0000  0.0000  0.0000  0.0000  1.0000  0.0000  0.0000  0.0000  0.0000      0.0000  0.0000  0.0000  0.0000  0.0000  0.0000  0.0000  0.0000  0.0000  0.0000
  o =  0.9926  v =  0.0000  0.0000  0.0000  0.0000  0.0000  0.0000  1.0000  0.0000  0.0000  0.0000      0.0000  0.0000  0.0000  0.0000  0.0000  0.0000  0.0000  0.0000  0.0000  0.0000
  o =  0.9926  v =  0.0000  0.0000  0.0000  0.0000  0.0000  0.0000  0.0000  1.0000  0.0000  0.0000      0.0000  0.0000  0.0000  0.0000  0.0000  0.0000  0.0000  0.0000  0.0000  0.0000
  o =  0.9926  v =  0.0000  0.0000  0.0000  0.0000  0.0000  0.0000  0.0000  0.0000  1.0000  0.0000      0.0000  0.0000  0.0000  0.0000  0.0000  0.0000  0.0000  0.0000  0.0000  0.0000
  o =  0.9926  v =  0.0000  0.0000  0.0000  0.0000  0.0000  0.0000  0.0000  0.0000  0.0000  1.0000      0.0000  0.0000  0.0000  0.0000  0.0000  0.0000  0.0000  0.0000  0.0000  0.0000
atom =  35  type =  2  l = 2
 
 onsite density matrix
 
spin component  1
 
  0.9926  0.0000  0.0000  0.0000  0.0000
  0.0000  0.9926  0.0000  0.0000  0.0000
  0.0000  0.0000  0.9926  0.0000  0.0000
  0.0000  0.0000  0.0000  0.9926  0.0000
  0.0000  0.0000  0.0000  0.0000  0.9926
 
spin component  2
 
  0.9926  0.0000  0.0000  0.0000  0.0000
  0.0000  0.9926  0.0000  0.0000  0.0000
  0.0000  0.0000  0.9926  0.0000  0.0000
  0.0000  0.0000  0.0000  0.9926  0.0000
  0.0000  0.0000  0.0000  0.0000  0.9926
 
 occupancies and eigenvectors
 
  o =  0.9926  v =  1.0000  0.0000  0.0000  0.0000  0.0000  0.0000  0.0000  0.0000  0.0000  0.0000      0.0000  0.0000  0.0000  0.0000  0.0000  0.0000  0.0000  0.0000  0.0000  0.0000
  o =  0.9926  v =  0.0000  1.0000  0.0000  0.0000  0.0000  0.0000  0.0000  0.0000  0.0000  0.0000      0.0000  0.0000  0.0000  0.0000  0.0000  0.0000  0.0000  0.0000  0.0000  0.0000
  o =  0.9926  v =  0.0000  0.0000  1.0000  0.0000  0.0000  0.0000  0.0000  0.0000  0.0000  0.0000      0.0000  0.0000  0.0000  0.0000  0.0000  0.0000  0.0000  0.0000  0.0000  0.0000
  o =  0.9926  v =  0.0000  0.0000  0.0000  1.0000  0.0000  0.0000  0.0000  0.0000  0.0000  0.0000      0.0000  0.0000  0.0000  0.0000  0.0000  0.0000  0.0000  0.0000  0.0000  0.0000
  o =  0.9926  v =  0.0000  0.0000  0.0000  0.0000  1.0000  0.0000  0.0000  0.0000  0.0000  0.0000      0.0000  0.0000  0.0000  0.0000  0.0000  0.0000  0.0000  0.0000  0.0000  0.0000
  o =  0.9926  v =  0.0000  0.0000  0.0000  0.0000  0.0000  1.0000  0.0000  0.0000  0.0000  0.0000      0.0000  0.0000  0.0000  0.0000  0.0000  0.0000  0.0000  0.0000  0.0000  0.0000
  o =  0.9926  v =  0.0000  0.0000  0.0000  0.0000  0.0000  0.0000  1.0000  0.0000  0.0000  0.0000      0.0000  0.0000  0.0000  0.0000  0.0000  0.0000  0.0000  0.0000  0.0000  0.0000
  o =  0.9926  v =  0.0000  0.0000  0.0000  0.0000  0.0000  0.0000  0.0000  1.0000  0.0000  0.0000      0.0000  0.0000  0.0000  0.0000  0.0000  0.0000  0.0000  0.0000  0.0000  0.0000
  o =  0.9926  v =  0.0000  0.0000  0.0000  0.0000  0.0000  0.0000  0.0000  0.0000  1.0000  0.0000      0.0000  0.0000  0.0000  0.0000  0.0000  0.0000  0.0000  0.0000  0.0000  0.0000
  o =  0.9926  v =  0.0000  0.0000  0.0000  0.0000  0.0000  0.0000  0.0000  0.0000  0.0000  1.0000      0.0000  0.0000  0.0000  0.0000  0.0000  0.0000  0.0000  0.0000  0.0000  0.0000
atom =  36  type =  2  l = 2
 
 onsite density matrix
 
spin component  1
 
  0.9926  0.0000  0.0000  0.0000  0.0000
  0.0000  0.9926  0.0000  0.0000  0.0000
  0.0000  0.0000  0.9926  0.0000  0.0000
  0.0000  0.0000  0.0000  0.9926  0.0000
  0.0000  0.0000  0.0000  0.0000  0.9926
 
spin component  2
 
  0.9926  0.0000  0.0000  0.0000  0.0000
  0.0000  0.9926  0.0000  0.0000  0.0000
  0.0000  0.0000  0.9926  0.0000  0.0000
  0.0000  0.0000  0.0000  0.9926  0.0000
  0.0000  0.0000  0.0000  0.0000  0.9926
 
 occupancies and eigenvectors
 
  o =  0.9926  v =  1.0000  0.0000  0.0000  0.0000  0.0000  0.0000  0.0000  0.0000  0.0000  0.0000      0.0000  0.0000  0.0000  0.0000  0.0000  0.0000  0.0000  0.0000  0.0000  0.0000
  o =  0.9926  v =  0.0000  1.0000  0.0000  0.0000  0.0000  0.0000  0.0000  0.0000  0.0000  0.0000      0.0000  0.0000  0.0000  0.0000  0.0000  0.0000  0.0000  0.0000  0.0000  0.0000
  o =  0.9926  v =  0.0000  0.0000  1.0000  0.0000  0.0000  0.0000  0.0000  0.0000  0.0000  0.0000      0.0000  0.0000  0.0000  0.0000  0.0000  0.0000  0.0000  0.0000  0.0000  0.0000
  o =  0.9926  v =  0.0000  0.0000  0.0000  1.0000  0.0000  0.0000  0.0000  0.0000  0.0000  0.0000      0.0000  0.0000  0.0000  0.0000  0.0000  0.0000  0.0000  0.0000  0.0000  0.0000
  o =  0.9926  v =  0.0000  0.0000  0.0000  0.0000  1.0000  0.0000  0.0000  0.0000  0.0000  0.0000      0.0000  0.0000  0.0000  0.0000  0.0000  0.0000  0.0000  0.0000  0.0000  0.0000
  o =  0.9926  v =  0.0000  0.0000  0.0000  0.0000  0.0000  1.0000  0.0000  0.0000  0.0000  0.0000      0.0000  0.0000  0.0000  0.0000  0.0000  0.0000  0.0000  0.0000  0.0000  0.0000
  o =  0.9926  v =  0.0000  0.0000  0.0000  0.0000  0.0000  0.0000  1.0000  0.0000  0.0000  0.0000      0.0000  0.0000  0.0000  0.0000  0.0000  0.0000  0.0000  0.0000  0.0000  0.0000
  o =  0.9926  v =  0.0000  0.0000  0.0000  0.0000  0.0000  0.0000  0.0000  1.0000  0.0000  0.0000      0.0000  0.0000  0.0000  0.0000  0.0000  0.0000  0.0000  0.0000  0.0000  0.0000
  o =  0.9926  v =  0.0000  0.0000  0.0000  0.0000  0.0000  0.0000  0.0000  0.0000  1.0000  0.0000      0.0000  0.0000  0.0000  0.0000  0.0000  0.0000  0.0000  0.0000  0.0000  0.0000
  o =  0.9926  v =  0.0000  0.0000  0.0000  0.0000  0.0000  0.0000  0.0000  0.0000  0.0000  1.0000      0.0000  0.0000  0.0000  0.0000  0.0000  0.0000  0.0000  0.0000  0.0000  0.0000
atom =  37  type =  2  l = 2
 
 onsite density matrix
 
spin component  1
 
  0.9926  0.0000  0.0000  0.0000  0.0000
  0.0000  0.9926  0.0000  0.0000  0.0000
  0.0000  0.0000  0.9926  0.0000  0.0000
  0.0000  0.0000  0.0000  0.9926  0.0000
  0.0000  0.0000  0.0000  0.0000  0.9926
 
spin component  2
 
  0.9926  0.0000  0.0000  0.0000  0.0000
  0.0000  0.9926  0.0000  0.0000  0.0000
  0.0000  0.0000  0.9926  0.0000  0.0000
  0.0000  0.0000  0.0000  0.9926  0.0000
  0.0000  0.0000  0.0000  0.0000  0.9926
 
 occupancies and eigenvectors
 
  o =  0.9926  v =  1.0000  0.0000  0.0000  0.0000  0.0000  0.0000  0.0000  0.0000  0.0000  0.0000      0.0000  0.0000  0.0000  0.0000  0.0000  0.0000  0.0000  0.0000  0.0000  0.0000
  o =  0.9926  v =  0.0000  1.0000  0.0000  0.0000  0.0000  0.0000  0.0000  0.0000  0.0000  0.0000      0.0000  0.0000  0.0000  0.0000  0.0000  0.0000  0.0000  0.0000  0.0000  0.0000
  o =  0.9926  v =  0.0000  0.0000  1.0000  0.0000  0.0000  0.0000  0.0000  0.0000  0.0000  0.0000      0.0000  0.0000  0.0000  0.0000  0.0000  0.0000  0.0000  0.0000  0.0000  0.0000
  o =  0.9926  v =  0.0000  0.0000  0.0000  1.0000  0.0000  0.0000  0.0000  0.0000  0.0000  0.0000      0.0000  0.0000  0.0000  0.0000  0.0000  0.0000  0.0000  0.0000  0.0000  0.0000
  o =  0.9926  v =  0.0000  0.0000  0.0000  0.0000  1.0000  0.0000  0.0000  0.0000  0.0000  0.0000      0.0000  0.0000  0.0000  0.0000  0.0000  0.0000  0.0000  0.0000  0.0000  0.0000
  o =  0.9926  v =  0.0000  0.0000  0.0000  0.0000  0.0000  1.0000  0.0000  0.0000  0.0000  0.0000      0.0000  0.0000  0.0000  0.0000  0.0000  0.0000  0.0000  0.0000  0.0000  0.0000
  o =  0.9926  v =  0.0000  0.0000  0.0000  0.0000  0.0000  0.0000  1.0000  0.0000  0.0000  0.0000      0.0000  0.0000  0.0000  0.0000  0.0000  0.0000  0.0000  0.0000  0.0000  0.0000
  o =  0.9926  v =  0.0000  0.0000  0.0000  0.0000  0.0000  0.0000  0.0000  1.0000  0.0000  0.0000      0.0000  0.0000  0.0000  0.0000  0.0000  0.0000  0.0000  0.0000  0.0000  0.0000
  o =  0.9926  v =  0.0000  0.0000  0.0000  0.0000  0.0000  0.0000  0.0000  0.0000  1.0000  0.0000      0.0000  0.0000  0.0000  0.0000  0.0000  0.0000  0.0000  0.0000  0.0000  0.0000
  o =  0.9926  v =  0.0000  0.0000  0.0000  0.0000  0.0000  0.0000  0.0000  0.0000  0.0000  1.0000      0.0000  0.0000  0.0000  0.0000  0.0000  0.0000  0.0000  0.0000  0.0000  0.0000
atom =  38  type =  2  l = 2
 
 onsite density matrix
 
spin component  1
 
  0.9926  0.0000  0.0000  0.0000  0.0000
  0.0000  0.9926  0.0000  0.0000  0.0000
  0.0000  0.0000  0.9926  0.0000  0.0000
  0.0000  0.0000  0.0000  0.9926  0.0000
  0.0000  0.0000  0.0000  0.0000  0.9926
 
spin component  2
 
  0.9926  0.0000  0.0000  0.0000  0.0000
  0.0000  0.9926  0.0000  0.0000  0.0000
  0.0000  0.0000  0.9926  0.0000  0.0000
  0.0000  0.0000  0.0000  0.9926  0.0000
  0.0000  0.0000  0.0000  0.0000  0.9926
 
 occupancies and eigenvectors
 
  o =  0.9926  v =  1.0000  0.0000  0.0000  0.0000  0.0000  0.0000  0.0000  0.0000  0.0000  0.0000      0.0000  0.0000  0.0000  0.0000  0.0000  0.0000  0.0000  0.0000  0.0000  0.0000
  o =  0.9926  v =  0.0000  1.0000  0.0000  0.0000  0.0000  0.0000  0.0000  0.0000  0.0000  0.0000      0.0000  0.0000  0.0000  0.0000  0.0000  0.0000  0.0000  0.0000  0.0000  0.0000
  o =  0.9926  v =  0.0000  0.0000  1.0000  0.0000  0.0000  0.0000  0.0000  0.0000  0.0000  0.0000      0.0000  0.0000  0.0000  0.0000  0.0000  0.0000  0.0000  0.0000  0.0000  0.0000
  o =  0.9926  v =  0.0000  0.0000  0.0000  1.0000  0.0000  0.0000  0.0000  0.0000  0.0000  0.0000      0.0000  0.0000  0.0000  0.0000  0.0000  0.0000  0.0000  0.0000  0.0000  0.0000
  o =  0.9926  v =  0.0000  0.0000  0.0000  0.0000  1.0000  0.0000  0.0000  0.0000  0.0000  0.0000      0.0000  0.0000  0.0000  0.0000  0.0000  0.0000  0.0000  0.0000  0.0000  0.0000
  o =  0.9926  v =  0.0000  0.0000  0.0000  0.0000  0.0000  1.0000  0.0000  0.0000  0.0000  0.0000      0.0000  0.0000  0.0000  0.0000  0.0000  0.0000  0.0000  0.0000  0.0000  0.0000
  o =  0.9926  v =  0.0000  0.0000  0.0000  0.0000  0.0000  0.0000  1.0000  0.0000  0.0000  0.0000      0.0000  0.0000  0.0000  0.0000  0.0000  0.0000  0.0000  0.0000  0.0000  0.0000
  o =  0.9926  v =  0.0000  0.0000  0.0000  0.0000  0.0000  0.0000  0.0000  1.0000  0.0000  0.0000      0.0000  0.0000  0.0000  0.0000  0.0000  0.0000  0.0000  0.0000  0.0000  0.0000
  o =  0.9926  v =  0.0000  0.0000  0.0000  0.0000  0.0000  0.0000  0.0000  0.0000  1.0000  0.0000      0.0000  0.0000  0.0000  0.0000  0.0000  0.0000  0.0000  0.0000  0.0000  0.0000
  o =  0.9926  v =  0.0000  0.0000  0.0000  0.0000  0.0000  0.0000  0.0000  0.0000  0.0000  1.0000      0.0000  0.0000  0.0000  0.0000  0.0000  0.0000  0.0000  0.0000  0.0000  0.0000
atom =  39  type =  2  l = 2
 
 onsite density matrix
 
spin component  1
 
  0.9926  0.0000  0.0000  0.0000  0.0000
  0.0000  0.9926  0.0000  0.0000  0.0000
  0.0000  0.0000  0.9926  0.0000  0.0000
  0.0000  0.0000  0.0000  0.9926  0.0000
  0.0000  0.0000  0.0000  0.0000  0.9926
 
spin component  2
 
  0.9926  0.0000  0.0000  0.0000  0.0000
  0.0000  0.9926  0.0000  0.0000  0.0000
  0.0000  0.0000  0.9926  0.0000  0.0000
  0.0000  0.0000  0.0000  0.9926  0.0000
  0.0000  0.0000  0.0000  0.0000  0.9926
 
 occupancies and eigenvectors
 
  o =  0.9926  v =  1.0000  0.0000  0.0000  0.0000  0.0000  0.0000  0.0000  0.0000  0.0000  0.0000      0.0000  0.0000  0.0000  0.0000  0.0000  0.0000  0.0000  0.0000  0.0000  0.0000
  o =  0.9926  v =  0.0000  1.0000  0.0000  0.0000  0.0000  0.0000  0.0000  0.0000  0.0000  0.0000      0.0000  0.0000  0.0000  0.0000  0.0000  0.0000  0.0000  0.0000  0.0000  0.0000
  o =  0.9926  v =  0.0000  0.0000  1.0000  0.0000  0.0000  0.0000  0.0000  0.0000  0.0000  0.0000      0.0000  0.0000  0.0000  0.0000  0.0000  0.0000  0.0000  0.0000  0.0000  0.0000
  o =  0.9926  v =  0.0000  0.0000  0.0000  1.0000  0.0000  0.0000  0.0000  0.0000  0.0000  0.0000      0.0000  0.0000  0.0000  0.0000  0.0000  0.0000  0.0000  0.0000  0.0000  0.0000
  o =  0.9926  v =  0.0000  0.0000  0.0000  0.0000  1.0000  0.0000  0.0000  0.0000  0.0000  0.0000      0.0000  0.0000  0.0000  0.0000  0.0000  0.0000  0.0000  0.0000  0.0000  0.0000
  o =  0.9926  v =  0.0000  0.0000  0.0000  0.0000  0.0000  1.0000  0.0000  0.0000  0.0000  0.0000      0.0000  0.0000  0.0000  0.0000  0.0000  0.0000  0.0000  0.0000  0.0000  0.0000
  o =  0.9926  v =  0.0000  0.0000  0.0000  0.0000  0.0000  0.0000  1.0000  0.0000  0.0000  0.0000      0.0000  0.0000  0.0000  0.0000  0.0000  0.0000  0.0000  0.0000  0.0000  0.0000
  o =  0.9926  v =  0.0000  0.0000  0.0000  0.0000  0.0000  0.0000  0.0000  1.0000  0.0000  0.0000      0.0000  0.0000  0.0000  0.0000  0.0000  0.0000  0.0000  0.0000  0.0000  0.0000
  o =  0.9926  v =  0.0000  0.0000  0.0000  0.0000  0.0000  0.0000  0.0000  0.0000  1.0000  0.0000      0.0000  0.0000  0.0000  0.0000  0.0000  0.0000  0.0000  0.0000  0.0000  0.0000
  o =  0.9926  v =  0.0000  0.0000  0.0000  0.0000  0.0000  0.0000  0.0000  0.0000  0.0000  1.0000      0.0000  0.0000  0.0000  0.0000  0.0000  0.0000  0.0000  0.0000  0.0000  0.0000
atom =  40  type =  2  l = 2
 
 onsite density matrix
 
spin component  1
 
  0.9926  0.0000  0.0000  0.0000  0.0000
  0.0000  0.9926  0.0000  0.0000  0.0000
  0.0000  0.0000  0.9926  0.0000  0.0000
  0.0000  0.0000  0.0000  0.9926  0.0000
  0.0000  0.0000  0.0000  0.0000  0.9926
 
spin component  2
 
  0.9926  0.0000  0.0000  0.0000  0.0000
  0.0000  0.9926  0.0000  0.0000  0.0000
  0.0000  0.0000  0.9926  0.0000  0.0000
  0.0000  0.0000  0.0000  0.9926  0.0000
  0.0000  0.0000  0.0000  0.0000  0.9926
 
 occupancies and eigenvectors
 
  o =  0.9926  v =  1.0000  0.0000  0.0000  0.0000  0.0000  0.0000  0.0000  0.0000  0.0000  0.0000      0.0000  0.0000  0.0000  0.0000  0.0000  0.0000  0.0000  0.0000  0.0000  0.0000
  o =  0.9926  v =  0.0000  1.0000  0.0000  0.0000  0.0000  0.0000  0.0000  0.0000  0.0000  0.0000      0.0000  0.0000  0.0000  0.0000  0.0000  0.0000  0.0000  0.0000  0.0000  0.0000
  o =  0.9926  v =  0.0000  0.0000  1.0000  0.0000  0.0000  0.0000  0.0000  0.0000  0.0000  0.0000      0.0000  0.0000  0.0000  0.0000  0.0000  0.0000  0.0000  0.0000  0.0000  0.0000
  o =  0.9926  v =  0.0000  0.0000  0.0000  1.0000  0.0000  0.0000  0.0000  0.0000  0.0000  0.0000      0.0000  0.0000  0.0000  0.0000  0.0000  0.0000  0.0000  0.0000  0.0000  0.0000
  o =  0.9926  v =  0.0000  0.0000  0.0000  0.0000  1.0000  0.0000  0.0000  0.0000  0.0000  0.0000      0.0000  0.0000  0.0000  0.0000  0.0000  0.0000  0.0000  0.0000  0.0000  0.0000
  o =  0.9926  v =  0.0000  0.0000  0.0000  0.0000  0.0000  1.0000  0.0000  0.0000  0.0000  0.0000      0.0000  0.0000  0.0000  0.0000  0.0000  0.0000  0.0000  0.0000  0.0000  0.0000
  o =  0.9926  v =  0.0000  0.0000  0.0000  0.0000  0.0000  0.0000  1.0000  0.0000  0.0000  0.0000      0.0000  0.0000  0.0000  0.0000  0.0000  0.0000  0.0000  0.0000  0.0000  0.0000
  o =  0.9926  v =  0.0000  0.0000  0.0000  0.0000  0.0000  0.0000  0.0000  1.0000  0.0000  0.0000      0.0000  0.0000  0.0000  0.0000  0.0000  0.0000  0.0000  0.0000  0.0000  0.0000
  o =  0.9926  v =  0.0000  0.0000  0.0000  0.0000  0.0000  0.0000  0.0000  0.0000  1.0000  0.0000      0.0000  0.0000  0.0000  0.0000  0.0000  0.0000  0.0000  0.0000  0.0000  0.0000
  o =  0.9926  v =  0.0000  0.0000  0.0000  0.0000  0.0000  0.0000  0.0000  0.0000  0.0000  1.0000      0.0000  0.0000  0.0000  0.0000  0.0000  0.0000  0.0000  0.0000  0.0000  0.0000
atom =  41  type =  2  l = 2
 
 onsite density matrix
 
spin component  1
 
  0.9926  0.0000  0.0000  0.0000  0.0000
  0.0000  0.9926  0.0000  0.0000  0.0000
  0.0000  0.0000  0.9926  0.0000  0.0000
  0.0000  0.0000  0.0000  0.9926  0.0000
  0.0000  0.0000  0.0000  0.0000  0.9926
 
spin component  2
 
  0.9926  0.0000  0.0000  0.0000  0.0000
  0.0000  0.9926  0.0000  0.0000  0.0000
  0.0000  0.0000  0.9926  0.0000  0.0000
  0.0000  0.0000  0.0000  0.9926  0.0000
  0.0000  0.0000  0.0000  0.0000  0.9926
 
 occupancies and eigenvectors
 
  o =  0.9926  v =  1.0000  0.0000  0.0000  0.0000  0.0000  0.0000  0.0000  0.0000  0.0000  0.0000      0.0000  0.0000  0.0000  0.0000  0.0000  0.0000  0.0000  0.0000  0.0000  0.0000
  o =  0.9926  v =  0.0000  1.0000  0.0000  0.0000  0.0000  0.0000  0.0000  0.0000  0.0000  0.0000      0.0000  0.0000  0.0000  0.0000  0.0000  0.0000  0.0000  0.0000  0.0000  0.0000
  o =  0.9926  v =  0.0000  0.0000  1.0000  0.0000  0.0000  0.0000  0.0000  0.0000  0.0000  0.0000      0.0000  0.0000  0.0000  0.0000  0.0000  0.0000  0.0000  0.0000  0.0000  0.0000
  o =  0.9926  v =  0.0000  0.0000  0.0000  1.0000  0.0000  0.0000  0.0000  0.0000  0.0000  0.0000      0.0000  0.0000  0.0000  0.0000  0.0000  0.0000  0.0000  0.0000  0.0000  0.0000
  o =  0.9926  v =  0.0000  0.0000  0.0000  0.0000  1.0000  0.0000  0.0000  0.0000  0.0000  0.0000      0.0000  0.0000  0.0000  0.0000  0.0000  0.0000  0.0000  0.0000  0.0000  0.0000
  o =  0.9926  v =  0.0000  0.0000  0.0000  0.0000  0.0000  1.0000  0.0000  0.0000  0.0000  0.0000      0.0000  0.0000  0.0000  0.0000  0.0000  0.0000  0.0000  0.0000  0.0000  0.0000
  o =  0.9926  v =  0.0000  0.0000  0.0000  0.0000  0.0000  0.0000  1.0000  0.0000  0.0000  0.0000      0.0000  0.0000  0.0000  0.0000  0.0000  0.0000  0.0000  0.0000  0.0000  0.0000
  o =  0.9926  v =  0.0000  0.0000  0.0000  0.0000  0.0000  0.0000  0.0000  1.0000  0.0000  0.0000      0.0000  0.0000  0.0000  0.0000  0.0000  0.0000  0.0000  0.0000  0.0000  0.0000
  o =  0.9926  v =  0.0000  0.0000  0.0000  0.0000  0.0000  0.0000  0.0000  0.0000  1.0000  0.0000      0.0000  0.0000  0.0000  0.0000  0.0000  0.0000  0.0000  0.0000  0.0000  0.0000
  o =  0.9926  v =  0.0000  0.0000  0.0000  0.0000  0.0000  0.0000  0.0000  0.0000  0.0000  1.0000      0.0000  0.0000  0.0000  0.0000  0.0000  0.0000  0.0000  0.0000  0.0000  0.0000
atom =  42  type =  2  l = 2
 
 onsite density matrix
 
spin component  1
 
  0.9926  0.0000  0.0000  0.0000  0.0000
  0.0000  0.9926  0.0000  0.0000  0.0000
  0.0000  0.0000  0.9926  0.0000  0.0000
  0.0000  0.0000  0.0000  0.9926  0.0000
  0.0000  0.0000  0.0000  0.0000  0.9926
 
spin component  2
 
  0.9926  0.0000  0.0000  0.0000  0.0000
  0.0000  0.9926  0.0000  0.0000  0.0000
  0.0000  0.0000  0.9926  0.0000  0.0000
  0.0000  0.0000  0.0000  0.9926  0.0000
  0.0000  0.0000  0.0000  0.0000  0.9926
 
 occupancies and eigenvectors
 
  o =  0.9926  v =  1.0000  0.0000  0.0000  0.0000  0.0000  0.0000  0.0000  0.0000  0.0000  0.0000      0.0000  0.0000  0.0000  0.0000  0.0000  0.0000  0.0000  0.0000  0.0000  0.0000
  o =  0.9926  v =  0.0000  1.0000  0.0000  0.0000  0.0000  0.0000  0.0000  0.0000  0.0000  0.0000      0.0000  0.0000  0.0000  0.0000  0.0000  0.0000  0.0000  0.0000  0.0000  0.0000
  o =  0.9926  v =  0.0000  0.0000  1.0000  0.0000  0.0000  0.0000  0.0000  0.0000  0.0000  0.0000      0.0000  0.0000  0.0000  0.0000  0.0000  0.0000  0.0000  0.0000  0.0000  0.0000
  o =  0.9926  v =  0.0000  0.0000  0.0000  1.0000  0.0000  0.0000  0.0000  0.0000  0.0000  0.0000      0.0000  0.0000  0.0000  0.0000  0.0000  0.0000  0.0000  0.0000  0.0000  0.0000
  o =  0.9926  v =  0.0000  0.0000  0.0000  0.0000  1.0000  0.0000  0.0000  0.0000  0.0000  0.0000      0.0000  0.0000  0.0000  0.0000  0.0000  0.0000  0.0000  0.0000  0.0000  0.0000
  o =  0.9926  v =  0.0000  0.0000  0.0000  0.0000  0.0000  1.0000  0.0000  0.0000  0.0000  0.0000      0.0000  0.0000  0.0000  0.0000  0.0000  0.0000  0.0000  0.0000  0.0000  0.0000
  o =  0.9926  v =  0.0000  0.0000  0.0000  0.0000  0.0000  0.0000  1.0000  0.0000  0.0000  0.0000      0.0000  0.0000  0.0000  0.0000  0.0000  0.0000  0.0000  0.0000  0.0000  0.0000
  o =  0.9926  v =  0.0000  0.0000  0.0000  0.0000  0.0000  0.0000  0.0000  1.0000  0.0000  0.0000      0.0000  0.0000  0.0000  0.0000  0.0000  0.0000  0.0000  0.0000  0.0000  0.0000
  o =  0.9926  v =  0.0000  0.0000  0.0000  0.0000  0.0000  0.0000  0.0000  0.0000  1.0000  0.0000      0.0000  0.0000  0.0000  0.0000  0.0000  0.0000  0.0000  0.0000  0.0000  0.0000
  o =  0.9926  v =  0.0000  0.0000  0.0000  0.0000  0.0000  0.0000  0.0000  0.0000  0.0000  1.0000      0.0000  0.0000  0.0000  0.0000  0.0000  0.0000  0.0000  0.0000  0.0000  0.0000
atom =  43  type =  2  l = 2
 
 onsite density matrix
 
spin component  1
 
  0.9926  0.0000  0.0000  0.0000  0.0000
  0.0000  0.9926  0.0000  0.0000  0.0000
  0.0000  0.0000  0.9926  0.0000  0.0000
  0.0000  0.0000  0.0000  0.9926  0.0000
  0.0000  0.0000  0.0000  0.0000  0.9926
 
spin component  2
 
  0.9926  0.0000  0.0000  0.0000  0.0000
  0.0000  0.9926  0.0000  0.0000  0.0000
  0.0000  0.0000  0.9926  0.0000  0.0000
  0.0000  0.0000  0.0000  0.9926  0.0000
  0.0000  0.0000  0.0000  0.0000  0.9926
 
 occupancies and eigenvectors
 
  o =  0.9926  v =  1.0000  0.0000  0.0000  0.0000  0.0000  0.0000  0.0000  0.0000  0.0000  0.0000      0.0000  0.0000  0.0000  0.0000  0.0000  0.0000  0.0000  0.0000  0.0000  0.0000
  o =  0.9926  v =  0.0000  1.0000  0.0000  0.0000  0.0000  0.0000  0.0000  0.0000  0.0000  0.0000      0.0000  0.0000  0.0000  0.0000  0.0000  0.0000  0.0000  0.0000  0.0000  0.0000
  o =  0.9926  v =  0.0000  0.0000  1.0000  0.0000  0.0000  0.0000  0.0000  0.0000  0.0000  0.0000      0.0000  0.0000  0.0000  0.0000  0.0000  0.0000  0.0000  0.0000  0.0000  0.0000
  o =  0.9926  v =  0.0000  0.0000  0.0000  1.0000  0.0000  0.0000  0.0000  0.0000  0.0000  0.0000      0.0000  0.0000  0.0000  0.0000  0.0000  0.0000  0.0000  0.0000  0.0000  0.0000
  o =  0.9926  v =  0.0000  0.0000  0.0000  0.0000  1.0000  0.0000  0.0000  0.0000  0.0000  0.0000      0.0000  0.0000  0.0000  0.0000  0.0000  0.0000  0.0000  0.0000  0.0000  0.0000
  o =  0.9926  v =  0.0000  0.0000  0.0000  0.0000  0.0000  1.0000  0.0000  0.0000  0.0000  0.0000      0.0000  0.0000  0.0000  0.0000  0.0000  0.0000  0.0000  0.0000  0.0000  0.0000
  o =  0.9926  v =  0.0000  0.0000  0.0000  0.0000  0.0000  0.0000  1.0000  0.0000  0.0000  0.0000      0.0000  0.0000  0.0000  0.0000  0.0000  0.0000  0.0000  0.0000  0.0000  0.0000
  o =  0.9926  v =  0.0000  0.0000  0.0000  0.0000  0.0000  0.0000  0.0000  1.0000  0.0000  0.0000      0.0000  0.0000  0.0000  0.0000  0.0000  0.0000  0.0000  0.0000  0.0000  0.0000
  o =  0.9926  v =  0.0000  0.0000  0.0000  0.0000  0.0000  0.0000  0.0000  0.0000  1.0000  0.0000      0.0000  0.0000  0.0000  0.0000  0.0000  0.0000  0.0000  0.0000  0.0000  0.0000
  o =  0.9926  v =  0.0000  0.0000  0.0000  0.0000  0.0000  0.0000  0.0000  0.0000  0.0000  1.0000      0.0000  0.0000  0.0000  0.0000  0.0000  0.0000  0.0000  0.0000  0.0000  0.0000
atom =  44  type =  2  l = 2
 
 onsite density matrix
 
spin component  1
 
  0.9926  0.0000  0.0000  0.0000  0.0000
  0.0000  0.9926  0.0000  0.0000  0.0000
  0.0000  0.0000  0.9926  0.0000  0.0000
  0.0000  0.0000  0.0000  0.9926  0.0000
  0.0000  0.0000  0.0000  0.0000  0.9926
 
spin component  2
 
  0.9926  0.0000  0.0000  0.0000  0.0000
  0.0000  0.9926  0.0000  0.0000  0.0000
  0.0000  0.0000  0.9926  0.0000  0.0000
  0.0000  0.0000  0.0000  0.9926  0.0000
  0.0000  0.0000  0.0000  0.0000  0.9926
 
 occupancies and eigenvectors
 
  o =  0.9926  v =  1.0000  0.0000  0.0000  0.0000  0.0000  0.0000  0.0000  0.0000  0.0000  0.0000      0.0000  0.0000  0.0000  0.0000  0.0000  0.0000  0.0000  0.0000  0.0000  0.0000
  o =  0.9926  v =  0.0000  1.0000  0.0000  0.0000  0.0000  0.0000  0.0000  0.0000  0.0000  0.0000      0.0000  0.0000  0.0000  0.0000  0.0000  0.0000  0.0000  0.0000  0.0000  0.0000
  o =  0.9926  v =  0.0000  0.0000  1.0000  0.0000  0.0000  0.0000  0.0000  0.0000  0.0000  0.0000      0.0000  0.0000  0.0000  0.0000  0.0000  0.0000  0.0000  0.0000  0.0000  0.0000
  o =  0.9926  v =  0.0000  0.0000  0.0000  1.0000  0.0000  0.0000  0.0000  0.0000  0.0000  0.0000      0.0000  0.0000  0.0000  0.0000  0.0000  0.0000  0.0000  0.0000  0.0000  0.0000
  o =  0.9926  v =  0.0000  0.0000  0.0000  0.0000  1.0000  0.0000  0.0000  0.0000  0.0000  0.0000      0.0000  0.0000  0.0000  0.0000  0.0000  0.0000  0.0000  0.0000  0.0000  0.0000
  o =  0.9926  v =  0.0000  0.0000  0.0000  0.0000  0.0000  1.0000  0.0000  0.0000  0.0000  0.0000      0.0000  0.0000  0.0000  0.0000  0.0000  0.0000  0.0000  0.0000  0.0000  0.0000
  o =  0.9926  v =  0.0000  0.0000  0.0000  0.0000  0.0000  0.0000  1.0000  0.0000  0.0000  0.0000      0.0000  0.0000  0.0000  0.0000  0.0000  0.0000  0.0000  0.0000  0.0000  0.0000
  o =  0.9926  v =  0.0000  0.0000  0.0000  0.0000  0.0000  0.0000  0.0000  1.0000  0.0000  0.0000      0.0000  0.0000  0.0000  0.0000  0.0000  0.0000  0.0000  0.0000  0.0000  0.0000
  o =  0.9926  v =  0.0000  0.0000  0.0000  0.0000  0.0000  0.0000  0.0000  0.0000  1.0000  0.0000      0.0000  0.0000  0.0000  0.0000  0.0000  0.0000  0.0000  0.0000  0.0000  0.0000
  o =  0.9926  v =  0.0000  0.0000  0.0000  0.0000  0.0000  0.0000  0.0000  0.0000  0.0000  1.0000      0.0000  0.0000  0.0000  0.0000  0.0000  0.0000  0.0000  0.0000  0.0000  0.0000
atom =  45  type =  2  l = 2
 
 onsite density matrix
 
spin component  1
 
  0.9926  0.0000  0.0000  0.0000  0.0000
  0.0000  0.9926  0.0000  0.0000  0.0000
  0.0000  0.0000  0.9926  0.0000  0.0000
  0.0000  0.0000  0.0000  0.9926  0.0000
  0.0000  0.0000  0.0000  0.0000  0.9926
 
spin component  2
 
  0.9926  0.0000  0.0000  0.0000  0.0000
  0.0000  0.9926  0.0000  0.0000  0.0000
  0.0000  0.0000  0.9926  0.0000  0.0000
  0.0000  0.0000  0.0000  0.9926  0.0000
  0.0000  0.0000  0.0000  0.0000  0.9926
 
 occupancies and eigenvectors
 
  o =  0.9926  v =  1.0000  0.0000  0.0000  0.0000  0.0000  0.0000  0.0000  0.0000  0.0000  0.0000      0.0000  0.0000  0.0000  0.0000  0.0000  0.0000  0.0000  0.0000  0.0000  0.0000
  o =  0.9926  v =  0.0000  1.0000  0.0000  0.0000  0.0000  0.0000  0.0000  0.0000  0.0000  0.0000      0.0000  0.0000  0.0000  0.0000  0.0000  0.0000  0.0000  0.0000  0.0000  0.0000
  o =  0.9926  v =  0.0000  0.0000  1.0000  0.0000  0.0000  0.0000  0.0000  0.0000  0.0000  0.0000      0.0000  0.0000  0.0000  0.0000  0.0000  0.0000  0.0000  0.0000  0.0000  0.0000
  o =  0.9926  v =  0.0000  0.0000  0.0000  1.0000  0.0000  0.0000  0.0000  0.0000  0.0000  0.0000      0.0000  0.0000  0.0000  0.0000  0.0000  0.0000  0.0000  0.0000  0.0000  0.0000
  o =  0.9926  v =  0.0000  0.0000  0.0000  0.0000  1.0000  0.0000  0.0000  0.0000  0.0000  0.0000      0.0000  0.0000  0.0000  0.0000  0.0000  0.0000  0.0000  0.0000  0.0000  0.0000
  o =  0.9926  v =  0.0000  0.0000  0.0000  0.0000  0.0000  1.0000  0.0000  0.0000  0.0000  0.0000      0.0000  0.0000  0.0000  0.0000  0.0000  0.0000  0.0000  0.0000  0.0000  0.0000
  o =  0.9926  v =  0.0000  0.0000  0.0000  0.0000  0.0000  0.0000  1.0000  0.0000  0.0000  0.0000      0.0000  0.0000  0.0000  0.0000  0.0000  0.0000  0.0000  0.0000  0.0000  0.0000
  o =  0.9926  v =  0.0000  0.0000  0.0000  0.0000  0.0000  0.0000  0.0000  1.0000  0.0000  0.0000      0.0000  0.0000  0.0000  0.0000  0.0000  0.0000  0.0000  0.0000  0.0000  0.0000
  o =  0.9926  v =  0.0000  0.0000  0.0000  0.0000  0.0000  0.0000  0.0000  0.0000  1.0000  0.0000      0.0000  0.0000  0.0000  0.0000  0.0000  0.0000  0.0000  0.0000  0.0000  0.0000
  o =  0.9926  v =  0.0000  0.0000  0.0000  0.0000  0.0000  0.0000  0.0000  0.0000  0.0000  1.0000      0.0000  0.0000  0.0000  0.0000  0.0000  0.0000  0.0000  0.0000  0.0000  0.0000
atom =  46  type =  2  l = 2
 
 onsite density matrix
 
spin component  1
 
  0.9926  0.0000  0.0000  0.0000  0.0000
  0.0000  0.9926  0.0000  0.0000  0.0000
  0.0000  0.0000  0.9926  0.0000  0.0000
  0.0000  0.0000  0.0000  0.9926  0.0000
  0.0000  0.0000  0.0000  0.0000  0.9926
 
spin component  2
 
  0.9926  0.0000  0.0000  0.0000  0.0000
  0.0000  0.9926  0.0000  0.0000  0.0000
  0.0000  0.0000  0.9926  0.0000  0.0000
  0.0000  0.0000  0.0000  0.9926  0.0000
  0.0000  0.0000  0.0000  0.0000  0.9926
 
 occupancies and eigenvectors
 
  o =  0.9926  v =  1.0000  0.0000  0.0000  0.0000  0.0000  0.0000  0.0000  0.0000  0.0000  0.0000      0.0000  0.0000  0.0000  0.0000  0.0000  0.0000  0.0000  0.0000  0.0000  0.0000
  o =  0.9926  v =  0.0000  1.0000  0.0000  0.0000  0.0000  0.0000  0.0000  0.0000  0.0000  0.0000      0.0000  0.0000  0.0000  0.0000  0.0000  0.0000  0.0000  0.0000  0.0000  0.0000
  o =  0.9926  v =  0.0000  0.0000  1.0000  0.0000  0.0000  0.0000  0.0000  0.0000  0.0000  0.0000      0.0000  0.0000  0.0000  0.0000  0.0000  0.0000  0.0000  0.0000  0.0000  0.0000
  o =  0.9926  v =  0.0000  0.0000  0.0000  1.0000  0.0000  0.0000  0.0000  0.0000  0.0000  0.0000      0.0000  0.0000  0.0000  0.0000  0.0000  0.0000  0.0000  0.0000  0.0000  0.0000
  o =  0.9926  v =  0.0000  0.0000  0.0000  0.0000  1.0000  0.0000  0.0000  0.0000  0.0000  0.0000      0.0000  0.0000  0.0000  0.0000  0.0000  0.0000  0.0000  0.0000  0.0000  0.0000
  o =  0.9926  v =  0.0000  0.0000  0.0000  0.0000  0.0000  1.0000  0.0000  0.0000  0.0000  0.0000      0.0000  0.0000  0.0000  0.0000  0.0000  0.0000  0.0000  0.0000  0.0000  0.0000
  o =  0.9926  v =  0.0000  0.0000  0.0000  0.0000  0.0000  0.0000  1.0000  0.0000  0.0000  0.0000      0.0000  0.0000  0.0000  0.0000  0.0000  0.0000  0.0000  0.0000  0.0000  0.0000
  o =  0.9926  v =  0.0000  0.0000  0.0000  0.0000  0.0000  0.0000  0.0000  1.0000  0.0000  0.0000      0.0000  0.0000  0.0000  0.0000  0.0000  0.0000  0.0000  0.0000  0.0000  0.0000
  o =  0.9926  v =  0.0000  0.0000  0.0000  0.0000  0.0000  0.0000  0.0000  0.0000  1.0000  0.0000      0.0000  0.0000  0.0000  0.0000  0.0000  0.0000  0.0000  0.0000  0.0000  0.0000
  o =  0.9926  v =  0.0000  0.0000  0.0000  0.0000  0.0000  0.0000  0.0000  0.0000  0.0000  1.0000      0.0000  0.0000  0.0000  0.0000  0.0000  0.0000  0.0000  0.0000  0.0000  0.0000
atom =  47  type =  2  l = 2
 
 onsite density matrix
 
spin component  1
 
  0.9926  0.0000  0.0000  0.0000  0.0000
  0.0000  0.9926  0.0000  0.0000  0.0000
  0.0000  0.0000  0.9926  0.0000  0.0000
  0.0000  0.0000  0.0000  0.9926  0.0000
  0.0000  0.0000  0.0000  0.0000  0.9926
 
spin component  2
 
  0.9926  0.0000  0.0000  0.0000  0.0000
  0.0000  0.9926  0.0000  0.0000  0.0000
  0.0000  0.0000  0.9926  0.0000  0.0000
  0.0000  0.0000  0.0000  0.9926  0.0000
  0.0000  0.0000  0.0000  0.0000  0.9926
 
 occupancies and eigenvectors
 
  o =  0.9926  v =  1.0000  0.0000  0.0000  0.0000  0.0000  0.0000  0.0000  0.0000  0.0000  0.0000      0.0000  0.0000  0.0000  0.0000  0.0000  0.0000  0.0000  0.0000  0.0000  0.0000
  o =  0.9926  v =  0.0000  1.0000  0.0000  0.0000  0.0000  0.0000  0.0000  0.0000  0.0000  0.0000      0.0000  0.0000  0.0000  0.0000  0.0000  0.0000  0.0000  0.0000  0.0000  0.0000
  o =  0.9926  v =  0.0000  0.0000  1.0000  0.0000  0.0000  0.0000  0.0000  0.0000  0.0000  0.0000      0.0000  0.0000  0.0000  0.0000  0.0000  0.0000  0.0000  0.0000  0.0000  0.0000
  o =  0.9926  v =  0.0000  0.0000  0.0000  1.0000  0.0000  0.0000  0.0000  0.0000  0.0000  0.0000      0.0000  0.0000  0.0000  0.0000  0.0000  0.0000  0.0000  0.0000  0.0000  0.0000
  o =  0.9926  v =  0.0000  0.0000  0.0000  0.0000  1.0000  0.0000  0.0000  0.0000  0.0000  0.0000      0.0000  0.0000  0.0000  0.0000  0.0000  0.0000  0.0000  0.0000  0.0000  0.0000
  o =  0.9926  v =  0.0000  0.0000  0.0000  0.0000  0.0000  1.0000  0.0000  0.0000  0.0000  0.0000      0.0000  0.0000  0.0000  0.0000  0.0000  0.0000  0.0000  0.0000  0.0000  0.0000
  o =  0.9926  v =  0.0000  0.0000  0.0000  0.0000  0.0000  0.0000  1.0000  0.0000  0.0000  0.0000      0.0000  0.0000  0.0000  0.0000  0.0000  0.0000  0.0000  0.0000  0.0000  0.0000
  o =  0.9926  v =  0.0000  0.0000  0.0000  0.0000  0.0000  0.0000  0.0000  1.0000  0.0000  0.0000      0.0000  0.0000  0.0000  0.0000  0.0000  0.0000  0.0000  0.0000  0.0000  0.0000
  o =  0.9926  v =  0.0000  0.0000  0.0000  0.0000  0.0000  0.0000  0.0000  0.0000  1.0000  0.0000      0.0000  0.0000  0.0000  0.0000  0.0000  0.0000  0.0000  0.0000  0.0000  0.0000
  o =  0.9926  v =  0.0000  0.0000  0.0000  0.0000  0.0000  0.0000  0.0000  0.0000  0.0000  1.0000      0.0000  0.0000  0.0000  0.0000  0.0000  0.0000  0.0000  0.0000  0.0000  0.0000
    EDDIAG:  cpu time   37.1803: real time   37.1980
  RMM-DIIS:  cpu time    7.1059: real time    7.1158
    ORTHCH:  cpu time    4.6803: real time    4.6835
       DOS:  cpu time    0.0070: real time    0.0064
    --------------------------------------------
      LOOP:  cpu time   49.6804: real time   49.8465

 eigenvalue-minimisations  :  1984
 total energy-change (2. order) : 0.8940380E+02  (-0.2295955E+05)
 number of electron     410.0000000 magnetization 
 augmentation part      410.0000000 magnetization 

 Free energy of the ion-electron system (eV)
  ---------------------------------------------------
  alpha Z        PSCENC =      1460.09211679
  Ewald energy   TEWEN  =    -33073.49417640
  -Hartree energ DENC   =    -10952.84235959
  -exchange      EXHF   =         0.00000000
  -V(xc)+E(xc)   XCENC  =      1793.78708315
  PAW double counting   =     35845.14641676   -36181.33068270
  entropy T*S    EENTRO =        -0.27686374
  eigenvalues    EBANDS =     -2494.30834290
  atomic energy  EATOM  =     43692.63060993
  Solvation  Ediel_sol  =         0.00000000
  ---------------------------------------------------
  free energy    TOTEN  =        89.40380130 eV

  energy without entropy =       89.68066504  energy(sigma->0) =       89.54223317


--------------------------------------------------------------------------------------------------------




----------------------------------------- Iteration    1(   2)  ---------------------------------------


    EDDIAG:  cpu time   41.2687: real time   42.7582
  RMM-DIIS:  cpu time    7.7998: real time    7.8152
    ORTHCH:  cpu time    5.1092: real time    5.1125
       DOS:  cpu time    0.0140: real time    0.0145
    --------------------------------------------
      LOOP:  cpu time   54.2578: real time   55.7861

 eigenvalue-minimisations  :  1984
 total energy-change (2. order) : 0.3965133E+03  (-0.4437830E+04)
 number of electron     410.0000000 magnetization 
 augmentation part      410.0000000 magnetization 

 Free energy of the ion-electron system (eV)
  ---------------------------------------------------
  alpha Z        PSCENC =      1460.09211679
  Ewald energy   TEWEN  =    -33073.49417640
  -Hartree energ DENC   =    -10952.84235959
  -exchange      EXHF   =         0.00000000
  -V(xc)+E(xc)   XCENC  =      1793.78708315
  PAW double counting   =     35845.14641676   -36181.33068270
  entropy T*S    EENTRO =        -0.04586714
  eigenvalues    EBANDS =     -2098.02603108
  atomic energy  EATOM  =     43692.63060993
  Solvation  Ediel_sol  =         0.00000000
  ---------------------------------------------------
  free energy    TOTEN  =       485.91710972 eV

  energy without entropy =      485.96297686  energy(sigma->0) =      485.94004329


--------------------------------------------------------------------------------------------------------




----------------------------------------- Iteration    1(   3)  ---------------------------------------


    EDDIAG:  cpu time   19.1721: real time   19.4857
  RMM-DIIS:  cpu time    6.3880: real time    6.3977
    ORTHCH:  cpu time    5.0002: real time    5.0036
       DOS:  cpu time    0.0050: real time    0.0044
    --------------------------------------------
      LOOP:  cpu time   30.5844: real time   30.9136

 eigenvalue-minimisations  :  1984
 total energy-change (2. order) :-0.6186022E+03  (-0.1235716E+04)
 number of electron     410.0000000 magnetization 
 augmentation part      410.0000000 magnetization 

 Free energy of the ion-electron system (eV)
  ---------------------------------------------------
  alpha Z        PSCENC =      1460.09211679
  Ewald energy   TEWEN  =    -33073.49417640
  -Hartree energ DENC   =    -10952.84235959
  -exchange      EXHF   =         0.00000000
  -V(xc)+E(xc)   XCENC  =      1793.78708315
  PAW double counting   =     35845.14641676   -36181.33068270
  entropy T*S    EENTRO =        -0.04466163
  eigenvalues    EBANDS =     -2716.62939072
  atomic energy  EATOM  =     43692.63060993
  Solvation  Ediel_sol  =         0.00000000
  ---------------------------------------------------
  free energy    TOTEN  =      -132.68504440 eV

  energy without entropy =     -132.64038277  energy(sigma->0) =     -132.66271359


--------------------------------------------------------------------------------------------------------




----------------------------------------- Iteration    1(   4)  ---------------------------------------


    EDDIAG:  cpu time   34.1618: real time   35.6944
  RMM-DIIS:  cpu time   14.7298: real time   16.9087
    ORTHCH:  cpu time    1.7787: real time    2.0698
       DOS:  cpu time    0.0040: real time    0.0043
    --------------------------------------------
      LOOP:  cpu time   50.7303: real time   54.7917

 eigenvalue-minimisations  :  4790
 total energy-change (2. order) :-0.1530930E+03  (-0.4841564E+03)
 number of electron     410.0000000 magnetization 
 augmentation part      410.0000000 magnetization 

 Free energy of the ion-electron system (eV)
  ---------------------------------------------------
  alpha Z        PSCENC =      1460.09211679
  Ewald energy   TEWEN  =    -33073.49417640
  -Hartree energ DENC   =    -10952.84235959
  -exchange      EXHF   =         0.00000000
  -V(xc)+E(xc)   XCENC  =      1793.78708315
  PAW double counting   =     35845.14641676   -36181.33068270
  entropy T*S    EENTRO =        -0.01311992
  eigenvalues    EBANDS =     -2869.75394461
  atomic energy  EATOM  =     43692.63060993
  Solvation  Ediel_sol  =         0.00000000
  ---------------------------------------------------
  free energy    TOTEN  =      -285.77805658 eV

  energy without entropy =     -285.76493667  energy(sigma->0) =     -285.77149662


--------------------------------------------------------------------------------------------------------




----------------------------------------- Iteration    1(   5)  ---------------------------------------


    EDDIAG:  cpu time    8.6027: real time   10.3777
  RMM-DIIS:  cpu time   14.6688: real time   16.4758
    ORTHCH:  cpu time    4.4543: real time    5.2363
       DOS:  cpu time    0.0030: real time    0.0034
    CHARGE:  cpu time    1.0848: real time    1.1852
    MIXING:  cpu time    0.1790: real time    0.1789
    --------------------------------------------
      LOOP:  cpu time   29.0266: real time   33.5422

 eigenvalue-minimisations  :  5034
 total energy-change (2. order) :-0.6640352E+02  (-0.6336681E+02)
 number of electron     408.9999833 magnetization 
 augmentation part      146.5257296 magnetization 

 Broyden mixing:
  rms(total) = 0.40138E+01    rms(broyden)= 0.40123E+01
  rms(prec ) = 0.52952E+01
  weight for this iteration     100.00

 Free energy of the ion-electron system (eV)
  ---------------------------------------------------
  alpha Z        PSCENC =      1460.09211679
  Ewald energy   TEWEN  =    -33073.49417640
  -Hartree energ DENC   =    -10952.84235959
  -exchange      EXHF   =         0.00000000
  -V(xc)+E(xc)   XCENC  =      1793.78708315
  PAW double counting   =     35845.14641676   -36181.33068270
  entropy T*S    EENTRO =        -0.00000134
  eigenvalues    EBANDS =     -2936.17058223
[...]
    168       4.0407      2.00000
    169       4.1269      2.00000
    170       4.2222      2.00000
    171       4.2638      2.00000
    172       4.2893      2.00000
    173       4.3289      2.00000
    174       4.3581      2.00000
    175       4.3853      2.00000
    176       4.4097      2.00000
    177       4.5315      2.00000
    178       4.5636      2.00000
    179       4.5908      2.00000
    180       4.6294      2.00000
    181       4.7006      2.00000
    182       4.7271      2.00000
    183       4.7581      2.00000
    184       4.8895      2.00000
    185       4.9134      2.00000
    186       4.9408      2.00000
    187       4.9794      2.00000
    188       5.0790      2.00000
    189       5.1022      2.00000
    190       5.1275      2.00000
    191       5.1457      2.00000
    192       5.1986      2.00000
    193       5.2217      2.00000
    194       5.2238      2.00000
    195       5.2740      2.00000
    196       5.2944      2.00000
    197       5.3854      2.00000
    198       5.4519      2.00000
    199       5.4793      2.00000
    200       5.5006      2.00000
    201       5.5170      2.00000
    202       5.6374      2.00000
    203       5.6655      2.00000
    204       5.7880      2.00000
    205       7.8862      0.00259
    206       9.6571      0.00000
    207       9.9150      0.00000
    208      10.2982      0.00000
    209      11.0039      0.00000
    210      11.1408      0.00000
    211      11.3808      0.00000
    212      11.4493      0.00000
    213      11.6940      0.00000
    214      11.9011      0.00000
    215      12.1002      0.00000
    216      12.2556      0.00000
    217      12.5500      0.00000
    218      12.5753      0.00000
    219      12.6945      0.00000
    220      13.0350      0.00000
    221      13.3577      0.00000
    222      13.9292      0.00000
    223      13.9629      0.00000
    224      14.2618      0.00000
    225      14.3252      0.00000
    226      14.5705      0.00000
    227      14.5961      0.00000
    228      14.6445      0.00000
    229      14.7284      0.00000
    230      14.7758      0.00000
    231      14.9648      0.00000
    232      15.0238      0.00000
    233      15.0924      0.00000
    234      15.1869      0.00000
    235      15.3837      0.00000
    236      15.5553      0.00000
    237      15.6302      0.00000
    238      15.6481      0.00000
    239      15.7363      0.00000
    240      15.8307      0.00000
    241      15.9259      0.00000
    242      15.9594      0.00000
    243      16.0251      0.00000
    244      16.1107      0.00000
    245      16.2291      0.00000
    246      16.9642      0.00000
    247      17.1786      0.00000
    248      17.2824      0.00000


--------------------------------------------------------------------------------------------------------


 soft charge-density along one line, spin component           1
         0         1         2         3         4         5         6         7         8         9
 total charge-density along one line
 
 pseudopotential strength for first ion, spin component:           1
 11.844 -14.385  -0.003  -0.002   0.014   0.004   0.003  -0.017
-14.385  17.488   0.004   0.003  -0.017  -0.005  -0.004   0.022
 -0.003   0.004  -7.876  -0.005   0.053   9.341   0.007  -0.072
 -0.002   0.003  -0.005  -7.918   0.004   0.007   9.398  -0.005
  0.014  -0.017   0.053   0.004  -7.876  -0.072  -0.005   9.342
  0.004  -0.005   9.341   0.007  -0.072 -10.894  -0.010   0.097
  0.003  -0.004   0.007   9.398  -0.005  -0.010 -10.971   0.007
 -0.017   0.022  -0.072  -0.005   9.342   0.097   0.007 -10.895
 total augmentation occupancy for first ion, spin component:           1
  2.622   0.378   0.014   0.004  -0.041   0.007   0.002  -0.018
  0.378   0.100   0.013   0.008  -0.044   0.005   0.002  -0.010
  0.014   0.013   2.122  -0.023  -0.019   0.238   0.000  -0.060
  0.004   0.008  -0.023   2.083  -0.006   0.000   0.274  -0.005
 -0.041  -0.044  -0.019  -0.006   2.146  -0.060  -0.005   0.244
  0.007   0.005   0.238   0.000  -0.060   0.035   0.000  -0.017
  0.002   0.002   0.000   0.274  -0.005   0.000   0.044  -0.002
 -0.018  -0.010  -0.060  -0.005   0.244  -0.017  -0.002   0.036


------------------------ aborting loop because EDIFF is reached ----------------------------------------


    CHARGE:  cpu time    0.9769: real time    0.9781
    FORLOC:  cpu time    0.0390: real time    0.0391
    FORNL :  cpu time   17.8333: real time   20.5101
    STRESS:  cpu time   14.3338: real time   17.7501
    FORCOR:  cpu time    0.3719: real time    0.5327
    FORHAR:  cpu time    0.1280: real time    0.1772
    MIXING:  cpu time    0.1900: real time    0.2202
    OFIELD:  cpu time    0.0000: real time    0.0000

  FORCE on cell =-STRESS in cart. coord.  units (eV):
  Direction    XX          YY          ZZ          XY          YZ          ZX
  --------------------------------------------------------------------------------------
  Alpha Z  1460.09212  1460.09212  1460.09212
  Ewald  -12742.61636-12742.61636 -7494.75137  -309.47697     0.00000     0.00000
  Hartree  2802.35619  2802.35619  5757.28755  -197.15819     0.00000     0.00000
  E(xc)   -2084.93276 -2084.93276 -2079.62894    -0.41761     0.00000     0.00000
  Local    1578.40858  1578.40858 -6472.00962   505.73080     0.00000     0.00000
  n-local   117.16754   116.95012   200.11835    -2.24198     0.05657     0.03612
  augment  3170.91848  3170.91848  3142.03326    -0.65959     0.00000     0.00000
  Kinetic  5689.00247  5689.30547  5478.76433     6.40725    -0.30121    -0.21273
  Fock        0.00000     0.00000     0.00000     0.00000     0.00000     0.00000
  -------------------------------------------------------------------------------------
  Total      -9.56096    -9.56096    -8.09433     2.18338     0.00000     0.00000
  in kB     -27.30619   -27.30619   -23.11750     6.23574     0.00000     0.00000
  external pressure =      -25.91 kB  Pullay stress =        0.00 kB


 VOLUME and BASIS-vectors are now :
 -----------------------------------------------------------------------------
  energy-cutoff  :      480.00
  volume of cell :      560.98
      direct lattice vectors                 reciprocal lattice vectors
     9.432027167  0.000000000  0.000000000     0.106021747  0.000000000  0.000000000
     0.000000000  9.432027167  0.000000000     0.000000000  0.106021747  0.000000000
     0.000000000  0.000000000  6.305806843     0.000000000  0.000000000  0.158583989

  length of vectors
     9.432027167  9.432027167  6.305806843     0.106021747  0.106021747  0.158583989


 FORCES acting on ions
    electron-ion (+dipol)            ewald-force                    non-local-force                 convergence-correction
 -----------------------------------------------------------------------------------------------
   -.653E+02 -.240E+02 -.188E+02   0.709E+02 0.227E+02 0.178E+02   -.559E+01 0.133E+01 0.103E+01   -.188E-01 -.130E-01 -.501E-02
   0.587E+02 -.311E+02 -.322E+01   -.620E+02 0.331E+02 0.309E+01   0.320E+01 -.197E+01 0.111E+00   0.159E-01 0.240E-01 0.117E-01
   0.192E+02 -.352E+02 0.631E+00   -.216E+02 0.382E+02 -.740E+00   0.235E+01 -.301E+01 0.117E+00   -.160E-02 0.727E-02 -.546E-02
   0.363E+02 0.408E+02 0.164E-05   -.386E+02 -.435E+02 0.322E-15   0.240E+01 0.265E+01 0.000E+00   0.458E-02 0.462E-02 0.411E-11
   -.733E+02 -.104E+02 0.198E-04   0.761E+02 0.129E+02 -.282E-13   -.278E+01 -.248E+01 0.000E+00   0.155E-01 0.318E-02 0.789E-11
   -.240E+02 -.653E+02 0.188E+02   0.227E+02 0.709E+02 -.178E+02   0.133E+01 -.559E+01 -.103E+01   -.130E-01 -.188E-01 0.501E-02
   -.311E+02 0.587E+02 0.322E+01   0.331E+02 -.620E+02 -.309E+01   -.197E+01 0.320E+01 -.111E+00   0.240E-01 0.159E-01 -.117E-01
   0.321E+02 0.439E+02 -.572E-05   -.343E+02 -.467E+02 0.258E-13   0.218E+01 0.273E+01 0.000E+00   0.606E-02 -.304E-02 -.133E-11
   -.174E+02 -.596E+02 -.855E-05   0.197E+02 0.625E+02 -.206E-13   -.225E+01 -.285E+01 0.000E+00   0.443E-02 -.300E-02 -.516E-12
   -.596E+02 -.174E+02 -.855E-05   0.625E+02 0.197E+02 -.261E-13   -.285E+01 -.225E+01 0.000E+00   -.300E-02 0.443E-02 -.516E-11
   -.311E+02 0.587E+02 -.322E+01   0.331E+02 -.620E+02 0.309E+01   -.197E+01 0.320E+01 0.111E+00   0.240E-01 0.159E-01 0.117E-01
   0.342E+02 0.342E+02 0.956E-05   -.362E+02 -.362E+02 0.493E-14   0.199E+01 0.199E+01 0.000E+00   0.152E-01 0.152E-01 -.138E-11
   -.507E+02 -.507E+02 0.290E-05   0.504E+02 0.504E+02 -.736E-14   0.324E+00 0.324E+00 0.000E+00   -.236E-02 -.236E-02 -.210E-12
   0.192E+02 -.352E+02 -.631E+00   -.216E+02 0.382E+02 0.740E+00   0.235E+01 -.301E+01 -.117E+00   -.160E-02 0.727E-02 0.546E-02
   -.352E+02 0.192E+02 -.631E+00   0.382E+02 -.216E+02 0.740E+00   -.301E+01 0.235E+01 -.117E+00   0.727E-02 -.160E-02 0.546E-02
   0.350E+02 0.350E+02 0.438E-05   -.375E+02 -.375E+02 0.228E-13   0.257E+01 0.257E+01 0.000E+00   0.258E-01 0.258E-01 -.473E-11
   -.569E+02 -.569E+02 -.350E-05   0.589E+02 0.589E+02 0.762E-14   -.203E+01 -.203E+01 0.000E+00   -.179E-01 -.179E-01 0.735E-12
   -.240E+02 -.653E+02 -.188E+02   0.227E+02 0.709E+02 0.178E+02   0.133E+01 -.559E+01 0.103E+01   -.130E-01 -.188E-01 -.501E-02
   0.439E+02 0.321E+02 -.572E-05   -.467E+02 -.343E+02 -.121E-13   0.273E+01 0.218E+01 0.000E+00   -.304E-02 0.606E-02 -.280E-11
   -.352E+02 0.192E+02 0.631E+00   0.382E+02 -.216E+02 -.740E+00   -.301E+01 0.235E+01 0.117E+00   0.727E-02 -.160E-02 -.546E-02
   -.198E+02 -.198E+02 -.115E-04   0.243E+02 0.243E+02 -.257E-13   -.449E+01 -.449E+01 0.000E+00   -.133E-02 -.133E-02 0.137E-11
   -.653E+02 -.240E+02 0.188E+02   0.709E+02 0.227E+02 -.178E+02   -.559E+01 0.133E+01 -.103E+01   -.188E-01 -.130E-01 0.501E-02
   0.587E+02 -.311E+02 0.322E+01   -.620E+02 0.331E+02 -.309E+01   0.320E+01 -.197E+01 -.111E+00   0.159E-01 0.240E-01 -.117E-01
   -.104E+02 -.733E+02 0.198E-04   0.129E+02 0.761E+02 -.348E-13   -.248E+01 -.278E+01 0.000E+00   0.318E-02 0.155E-01 -.400E-12
   0.496E+02 0.496E+02 -.149E-04   -.528E+02 -.528E+02 -.282E-13   0.321E+01 0.321E+01 0.000E+00   -.213E-01 -.213E-01 -.131E-11
   0.408E+02 0.363E+02 0.164E-05   -.435E+02 -.386E+02 0.190E-13   0.265E+01 0.240E+01 0.000E+00   0.462E-02 0.458E-02 0.937E-12
   -.371E+02 0.905E+02 0.275E+02   0.377E+02 -.929E+02 -.275E+02   -.591E+00 0.249E+01 0.255E-01   -.207E-01 0.828E-02 0.102E-01
   0.905E+02 -.371E+02 -.275E+02   -.929E+02 0.377E+02 0.275E+02   0.249E+01 -.591E+00 -.255E-01   0.828E-02 -.207E-01 -.102E-01
   -.371E+02 0.905E+02 -.275E+02   0.377E+02 -.929E+02 0.275E+02   -.591E+00 0.249E+01 -.255E-01   -.207E-01 0.828E-02 -.102E-01
   0.102E+02 0.102E+02 0.118E-04   -.576E+01 -.576E+01 0.189E-15   -.436E+01 -.436E+01 0.000E+00   -.304E-01 -.304E-01 -.295E-11
   0.905E+02 -.371E+02 0.275E+02   -.929E+02 0.377E+02 -.275E+02   0.249E+01 -.591E+00 0.255E-01   0.828E-02 -.207E-01 0.102E-01
   0.167E+02 0.167E+02 0.355E-04   -.166E+02 -.166E+02 -.921E-13   -.243E+00 -.243E+00 0.000E+00   0.517E-01 0.517E-01 0.115E-10
   -.249E+02 -.249E+02 0.697E+01   0.245E+02 0.245E+02 -.705E+01   0.416E+00 0.416E+00 0.438E-01   -.102E-01 -.102E-01 0.148E-01
   0.144E+03 0.144E+03 0.209E+03   -.143E+03 -.143E+03 -.207E+03   -.802E+00 -.802E+00 -.189E+01   -.199E-01 -.199E-01 0.832E-02
   -.471E+02 -.471E+02 0.267E-04   0.469E+02 0.469E+02 -.268E-13   0.165E+00 0.165E+00 0.000E+00   -.323E-01 -.323E-01 -.445E-11
   -.249E+02 -.249E+02 -.697E+01   0.245E+02 0.245E+02 0.705E+01   0.416E+00 0.416E+00 -.438E-01   -.102E-01 -.102E-01 -.148E-01
   -.433E+02 0.417E+02 -.123E-04   0.423E+02 -.410E+02 0.122E-15   0.106E+01 -.675E+00 0.000E+00   -.444E-01 0.286E-01 -.129E-10
   0.144E+03 0.144E+03 -.209E+03   -.143E+03 -.143E+03 0.207E+03   -.802E+00 -.802E+00 0.189E+01   -.199E-01 -.199E-01 -.832E-02
   0.384E+02 -.429E+02 -.485E+01   -.376E+02 0.423E+02 0.505E+01   -.865E+00 0.501E+00 -.184E+00   -.344E-02 0.231E-01 -.817E-02
   -.429E+02 0.384E+02 -.485E+01   0.423E+02 -.376E+02 0.505E+01   0.501E+00 -.865E+00 -.184E+00   0.231E-01 -.344E-02 -.817E-02
   0.417E+02 -.433E+02 -.123E-04   -.410E+02 0.423E+02 0.493E-13   -.675E+00 0.106E+01 0.000E+00   0.286E-01 -.444E-01 -.134E-10
   -.523E+02 0.681E+02 -.132E-04   0.518E+02 -.678E+02 -.436E-13   0.563E+00 -.310E+00 0.000E+00   -.453E-01 0.278E-01 0.192E-10
   0.384E+02 -.429E+02 0.485E+01   -.376E+02 0.423E+02 -.505E+01   -.865E+00 0.501E+00 0.184E+00   -.344E-02 0.231E-01 0.817E-02
   -.429E+02 0.384E+02 0.485E+01   0.423E+02 -.376E+02 -.505E+01   0.501E+00 -.865E+00 0.184E+00   0.231E-01 -.344E-02 0.817E-02
   0.681E+02 -.523E+02 -.132E-04   -.678E+02 0.518E+02 -.524E-13   -.310E+00 0.563E+00 0.000E+00   0.278E-01 -.453E-01 0.451E-11
   0.439E+02 0.439E+02 0.236E-04   -.422E+02 -.422E+02 -.369E-13   -.163E+01 -.163E+01 0.000E+00   0.388E-01 0.388E-01 -.390E-11
   -.196E+03 -.196E+03 -.435E-05   0.193E+03 0.193E+03 0.697E-13   0.322E+01 0.322E+01 0.000E+00   -.256E-01 -.256E-01 0.687E-11
 -----------------------------------------------------------------------------------------------
   0.614E+01 0.614E+01 0.104E-03   0.398E-12 0.171E-12 0.235E-12   -.612E+01 -.612E+01 0.222E-15   -.188E-01 -.188E-01 0.680E-11
 
 
 POSITION                                       TOTAL-FORCE (eV/Angst)
 -----------------------------------------------------------------------------------
      0.95150      8.56937      4.75592         0.014576      0.013428      0.006457
      3.79382      5.61474      4.73152        -0.019041      0.007862     -0.004610
      8.51821      5.63518      4.72475        -0.020906     -0.003943      0.002713
      6.16368      1.43330      0.00000         0.015632     -0.013636      0.000000
      7.98265      3.28249      0.00000        -0.017470      0.012448      0.000000
      8.56937      0.95150      1.54989         0.013428      0.014576     -0.006457
      5.61474      3.79382      1.57429         0.007862     -0.019041      0.004610
      6.16184      1.43473      3.15290         0.006782     -0.020102      0.000000
      3.26782      7.98770      3.15290         0.003587      0.004862      0.000000
      7.98770      3.26782      3.15290         0.004862      0.003587      0.000000
      5.61474      3.79382      4.73152         0.007862     -0.019041     -0.004610
      6.15437      6.15437      0.00000         0.027523      0.027523      0.000000
      7.95127      7.95127      0.00000        -0.007664     -0.007664      0.000000
      8.51821      5.63518      1.58106        -0.020906     -0.003943     -0.002713
      5.63518      8.51821      1.58106        -0.003943     -0.020906     -0.002713
      6.15857      6.15857      3.15290         0.007983      0.007983      0.000000
      8.00118      8.00118      3.15290        -0.013239     -0.013239      0.000000
      8.56937      0.95150      4.75592         0.013428      0.014576      0.006457
      1.43473      6.16184      3.15290        -0.020102      0.006782      0.000000
      5.63518      8.51821      4.72475        -0.003943     -0.020906      0.002713
      3.29949      3.29949      3.15290         0.006085      0.006085      0.000000
      0.95150      8.56937      1.54989         0.014576      0.013428     -0.006457
      3.79382      5.61474      1.57429        -0.019041      0.007862      0.004610
      3.28249      7.98265      0.00000         0.012448     -0.017470      0.000000
      1.45687      1.45687      3.15290        -0.004855     -0.004855      0.000000
      1.43330      6.16368      0.00000        -0.013636      0.015632      0.000000
      0.90275      3.76353      1.55942        -0.006265      0.019940     -0.022619
      3.76353      0.90275      4.74638         0.019940     -0.006265      0.022619
      0.90275      3.76353      4.74638        -0.006265      0.019940      0.022619
      3.24278      3.24278      0.00000         0.006320      0.006320      0.000000
      3.76353      0.90275      1.55942         0.019940     -0.006265     -0.022619
      4.73430      4.73430      3.15290        -0.034262     -0.034262      0.000000
      7.05833      7.05833      4.71955         0.009448      0.009448     -0.016276
      2.40031      2.40031      1.61687         0.002040      0.002040      0.006758
      0.01196      0.01196      3.15290         0.012239      0.012239      0.000000
      7.05833      7.05833      1.58626         0.009448      0.009448      0.016276
      9.42243      4.71386      3.15290         0.017232     -0.008339      0.000000
      2.40031      2.40031      4.68894         0.002040      0.002040     -0.006758
      2.36855      7.06799      4.73227        -0.003714     -0.025835      0.009327
      7.06799      2.36855      4.73227        -0.025835     -0.003714      0.009327
      4.71386      9.42243      3.15290        -0.008339      0.017232      0.000000
      9.41690      4.72856      0.00000         0.012142     -0.005905      0.000000
      2.36855      7.06799      1.57354        -0.003714     -0.025835     -0.009327
      7.06799      2.36855      1.57354        -0.025835     -0.003714     -0.009327
      4.72856      9.41690      0.00000        -0.005905      0.012142      0.000000
      4.72716      4.72716      0.00000         0.014830      0.014830      0.000000
     -0.09621     -0.09621      0.00000         0.002628      0.002628      0.000000
 -----------------------------------------------------------------------------------
    total drift:                                0.000746      0.000746      0.000104


--------------------------------------------------------------------------------------------------------



  FREE ENERGIE OF THE ION-ELECTRON SYSTEM (eV)
  ---------------------------------------------------
  free  energy   TOTEN  =      -313.03186809 eV

  energy  without entropy=     -313.03051243  energy(sigma->0) =     -313.03119026
 
 d Force = 0.1292108E-02[ 0.234E-03, 0.235E-02]  d Energy = 0.1410066E-02-0.118E-03
 d Force =-0.2596633E+00[-0.288E+00,-0.231E+00]  d Ewald  =-0.2596553E+00-0.798E-05


--------------------------------------------------------------------------------------------------------


    POTLOK:  cpu time    0.5299: real time    0.7197


--------------------------------------------------------------------------------------------------------


 Conjugate gradient step on ions:
 trial-energy change:   -0.001410  1 .order   -0.001292   -0.002350   -0.000234
  (g-gl).g = 0.273E-02      g.g   = 0.259E-02  gl.gl    = 0.855E-02
 g(Force)  = 0.259E-02   g(Stress)= 0.000E+00 ortho     =-0.348E-03
 gamma     =   0.31855
 trial     =   0.94923
 opt step  =   1.05445  (harmonic =   1.05445) maximal distance =0.00428676
 next E    =  -313.031763   (d E  =  -0.00131)


--------------------------------------------------------------------------------------------------------


  
 reached required accuracy - stopping structural energy minimisation
 writing wavefunctions
     LOOP+:  cpu time  293.0524: real time  327.8808
    4ORBIT:  cpu time    0.0000: real time    0.0000

 total amount of memory used by VASP on root node    53050. kBytes
========================================================================

   base      :      30000. kBytes
   nonl-proj :       5182. kBytes
   fftplans  :       1450. kBytes
   grid      :       2326. kBytes
   one-center:         93. kBytes
   wavefun   :      13999. kBytes
 
  
  
 General timing and accounting informations for this job:
 ========================================================
  
                  Total CPU time used (sec):     3764.354
                            User time (sec):     3725.979
                          System time (sec):       38.375
                         Elapsed time (sec):     3999.865
  
                   Maximum memory used (kb):       65972.
                   Average memory used (kb):           0.
  
                          Minor page faults:        10438
                          Major page faults:            0
                 Voluntary context switches:         2059
