 running on   32 total cores
 distrk:  each k-point on   32 cores,    1 groups
 distr:  one band on    8 cores,    4 groups
 using from now: INCAR     
 vasp.5.4.1 05Feb16 (build Dec 31 2016 05:41:53) complex                        
  
 POSCAR found type information on POSCAR  O  Sn F 
 POSCAR found :  3 types and      49 ions
 scaLAPACK will be used

 ----------------------------------------------------------------------------- 
|                                                                             |
|  ADVICE TO THIS USER RUNNING 'VASP/VAMP'   (HEAR YOUR MASTER'S VOICE ...):  |
|                                                                             |
|      You have a (more or less) 'large supercell' and for larger cells       |
|      it might be more efficient to use real space projection opertators     |
|      So try LREAL= Auto  in the INCAR   file.                               |
|      Mind: At the moment your POTCAR file does not contain real space       |
|       projectors, and has to be modified,  BUT if you                       |
|      want to do an extremely  accurate calculation you might also keep the  |
|      reciprocal projection scheme          (i.e. LREAL=.FALSE.)             |
|                                                                             |
 ----------------------------------------------------------------------------- 

 LDA part: xc-table for Pade appr. of Perdew
 POSCAR, INCAR and KPOINTS ok, starting setup
 WARNING: small aliasing (wrap around) errors must be expected
 FFT: planning ...
 WAVECAR not read
 entering main loop
       N       E                     dE             d eps       ncg     rms          rms(c)
RMM:   1     0.522001894798E+02    0.52200E+02   -0.23828E+05  2560   0.236E+03
RMM:   2     0.541889244520E+03    0.48969E+03   -0.46419E+04  2560   0.431E+02
RMM:   3    -0.140165317300E+03   -0.68205E+03   -0.12992E+04  2560   0.207E+02
RMM:   4    -0.289179199642E+03   -0.14901E+03   -0.52277E+03  6214   0.160E+02
RMM:   5    -0.358876490594E+03   -0.69697E+02   -0.65394E+02  6533   0.384E+01BRMIX: very serious problems
 the old and the new charge density differ
 old charge density:   423.00000 new  421.99997
    0.413E+01
RMM:   6    -0.318757064837E+03    0.40119E+02   -0.19740E+02  6110   0.248E+01    0.170E+01
RMM:   7    -0.320344089021E+03   -0.15870E+01   -0.28974E+01  6552   0.804E+00    0.962E+00
RMM:   8    -0.320499763915E+03   -0.15567E+00   -0.56746E+00  6099   0.531E+00    0.329E+00
RMM:   9    -0.320369932785E+03    0.12983E+00   -0.88051E-01  6195   0.193E+00    0.103E+00
RMM:  10    -0.320394315404E+03   -0.24383E-01   -0.47555E-01  6082   0.119E+00    0.766E-01
RMM:  11    -0.320384163666E+03    0.10152E-01   -0.51178E-02  6966   0.356E-01    0.416E-01
RMM:  12    -0.320383418741E+03    0.74492E-03   -0.15721E-02  5861   0.226E-01    0.665E-02
RMM:  13    -0.320383416833E+03    0.19085E-05   -0.14237E-03  5410   0.601E-02    0.220E-02
RMM:  14    -0.320383436415E+03   -0.19582E-04   -0.17483E-04  3519   0.277E-02
   1 F= -.32038344E+03 E0= -.32038306E+03  d E =-.320383E+03
 curvature:   0.00 expect dE= 0.000E+00 dE for cont linesearch  0.000E+00
 trial: gam= 0.00000 g(F)=  0.247E+01 g(S)=  0.000E+00 ort = 0.000E+00 (trialstep = 0.100E+01)
 search vector abs. value=  0.247E+01
 bond charge predicted
       N       E                     dE             d eps       ncg     rms          rms(c)
RMM:   1    -0.321885740558E+03   -0.15023E+01   -0.71361E+02  6737   0.566E+01    0.114E+01
RMM:   2    -0.320344055585E+03    0.15417E+01   -0.34783E+01  6104   0.132E+01    0.389E+00
RMM:   3    -0.320543217727E+03   -0.19916E+00   -0.45106E+00  6449   0.456E+00    0.328E+00
RMM:   4    -0.320540494827E+03    0.27229E-02   -0.34195E-01  6689   0.123E+00    0.291E+00
RMM:   5    -0.320530119159E+03    0.10376E-01   -0.27752E-02  6134   0.430E-01    0.163E+00
RMM:   6    -0.320521112921E+03    0.90062E-02   -0.66307E-02  5989   0.611E-01    0.742E-01
RMM:   7    -0.320520507109E+03    0.60581E-03   -0.53594E-03  6625   0.165E-01    0.419E-01
RMM:   8    -0.320520267420E+03    0.23969E-03   -0.31216E-03  5891   0.165E-01    0.951E-02
RMM:   9    -0.320520217755E+03    0.49665E-04   -0.34248E-04  3832   0.465E-02
   2 F= -.32052022E+03 E0= -.32052022E+03  d E =-.136781E+00
 trial-energy change:   -0.136781  1 .order   -0.110236   -2.470373    2.249900
 step:   0.5318(harm=  0.5234)  dis= 0.06621  next Energy=  -321.044244 (dE=-0.661E+00)
 bond charge predicted
       N       E                     dE             d eps       ncg     rms          rms(c)
RMM:   1    -0.321426831140E+03   -0.90656E+00   -0.14527E+02  5901   0.225E+01    0.360E+00
RMM:   2    -0.320981553183E+03    0.44528E+00   -0.65447E+00  6075   0.633E+00    0.117E+00
RMM:   3    -0.321047740443E+03   -0.66187E-01   -0.10355E+00  6790   0.175E+00    0.149E+00
RMM:   4    -0.321047849607E+03   -0.10916E-03   -0.28094E-02  6254   0.392E-01    0.107E+00
RMM:   5    -0.321042513818E+03    0.53358E-02   -0.19523E-02  6021   0.322E-01    0.377E-01
RMM:   6    -0.321041483507E+03    0.10303E-02   -0.48958E-03  5988   0.165E-01    0.437E-01
RMM:   7    -0.321041526532E+03   -0.43025E-04   -0.72891E-04  5253   0.542E-02
   3 F= -.32104153E+03 E0= -.32104153E+03  d E =-.658090E+00
 curvature:  -0.26 expect dE=-0.103E+00 dE for cont linesearch -0.105E-05
 trial: gam= 0.15775 g(F)=  0.393E+00 g(S)=  0.000E+00 ort = 0.315E-02 (trialstep = 0.906E+00)
 search vector abs. value=  0.455E+00
 bond charge predicted
       N       E                     dE             d eps       ncg     rms          rms(c)
RMM:   1    -0.326490729170E+03   -0.54492E+01   -0.15072E+02  5129   0.207E+01    0.214E+00
RMM:   2    -0.321280291751E+03    0.52104E+01   -0.93778E+00  6100   0.100E+01    0.115E+00
RMM:   3    -0.321259167583E+03    0.21124E-01   -0.23826E-01  6854   0.119E+00    0.709E-01
RMM:   4    -0.321256351519E+03    0.28161E-02   -0.10938E-02  6050   0.261E-01    0.455E-01
RMM:   5    -0.321255371474E+03    0.98005E-03   -0.42723E-03  6046   0.166E-01    0.178E-01
RMM:   6    -0.321255299014E+03    0.72460E-04   -0.14248E-03  5902   0.908E-02    0.371E-02
RMM:   7    -0.321255302682E+03   -0.36680E-05   -0.15972E-04  3157   0.306E-02
   4 F= -.32125530E+03 E0= -.32125530E+03  d E =-.213776E+00
 trial-energy change:   -0.213776  1 .order   -0.214840   -0.356501   -0.073178
 step:   1.1473(harm=  1.1404)  dis= 0.04308  next Energy=  -321.265010 (dE=-0.223E+00)
 bond charge predicted
       N       E                     dE             d eps       ncg     rms          rms(c)
RMM:   1    -0.321630275126E+03   -0.37498E+00   -0.10628E+01  5126   0.549E+00    0.493E-01
RMM:   2    -0.321266115628E+03    0.36416E+00   -0.63836E-01  6100   0.259E+00    0.213E-01
RMM:   3    -0.321265428978E+03    0.68665E-03   -0.14764E-02  6859   0.300E-01    0.169E-01
RMM:   4    -0.321265357864E+03    0.71114E-04   -0.54094E-04  4427   0.535E-02
   5 F= -.32126536E+03 E0= -.32126536E+03  d E =-.223831E+00
 curvature:  -0.66 expect dE=-0.914E-01 dE for cont linesearch -0.237E-05
 trial: gam= 0.37407 g(F)=  0.139E+00 g(S)=  0.000E+00 ort = 0.128E-02 (trialstep = 0.955E+00)
 search vector abs. value=  0.203E+00
 bond charge predicted
       N       E                     dE             d eps       ncg     rms          rms(c)
RMM:   1    -0.323518572409E+03   -0.22531E+01   -0.71449E+01  5125   0.146E+01    0.132E+00
RMM:   2    -0.321331764036E+03    0.21868E+01   -0.40547E+00  6100   0.656E+00    0.569E-01
RMM:   3    -0.321330967096E+03    0.79694E-03   -0.12289E-01  6824   0.801E-01    0.487E-01
RMM:   4    -0.321330267546E+03    0.69955E-03   -0.42956E-03  6008   0.154E-01    0.351E-01
RMM:   5    -0.321329853255E+03    0.41429E-03   -0.17014E-03  5841   0.933E-02    0.136E-01
RMM:   6    -0.321329715934E+03    0.13732E-03   -0.93849E-04  5335   0.672E-02    0.364E-02
RMM:   7    -0.321329717638E+03   -0.17033E-05   -0.95432E-05  3054   0.236E-02
   6 F= -.32132972E+03 E0= -.32132971E+03  d E =-.643598E-01
 trial-energy change:   -0.064360  1 .order   -0.063500   -0.132682    0.005683
 step:   0.9167(harm=  0.9153)  dis= 0.01988  next Energy=  -321.329830 (dE=-0.645E-01)
 bond charge predicted
       N       E                     dE             d eps       ncg     rms          rms(c)
RMM:   1    -0.321333168839E+03   -0.34529E-02   -0.11065E-01  5125   0.576E-01    0.564E-02
RMM:   2    -0.321329797118E+03    0.33717E-02   -0.62689E-03  5651   0.254E-01    0.221E-02
RMM:   3    -0.321329786959E+03    0.10160E-04   -0.17767E-04  3357   0.343E-02
   7 F= -.32132979E+03 E0= -.32132978E+03  d E =-.644291E-01
 curvature:  -0.67 expect dE=-0.348E-01 dE for cont linesearch -0.133E-04
 trial: gam= 0.37850 g(F)=  0.521E-01 g(S)=  0.000E+00 ort = 0.201E-02 (trialstep = 0.947E+00)
 search vector abs. value=  0.828E-01
 bond charge predicted
       N       E                     dE             d eps       ncg     rms          rms(c)
RMM:   1    -0.322338345666E+03   -0.10085E+01   -0.30186E+01  5121   0.908E+00    0.712E-01
RMM:   2    -0.321361864584E+03    0.97648E+00   -0.16581E+00  6100   0.409E+00    0.328E-01
RMM:   3    -0.321360397262E+03    0.14673E-02   -0.35873E-02  6835   0.452E-01    0.255E-01
RMM:   4    -0.321360184685E+03    0.21258E-03   -0.12458E-03  5647   0.804E-02    0.174E-01
RMM:   5    -0.321360010181E+03    0.17450E-03   -0.10939E-03  5173   0.703E-02    0.241E-02
RMM:   6    -0.321360007223E+03    0.29584E-05   -0.99752E-05  3149   0.256E-02
   8 F= -.32136001E+03 E0= -.32136000E+03  d E =-.302203E-01
 trial-energy change:   -0.030220  1 .order   -0.029943   -0.050090   -0.009797
 step:   1.1772(harm=  1.1772)  dis= 0.02034  next Energy=  -321.360921 (dE=-0.311E-01)
 bond charge predicted
       N       E                     dE             d eps       ncg     rms          rms(c)
RMM:   1    -0.321418804652E+03   -0.58794E-01   -0.17844E+00  5120   0.222E+00    0.167E-01
RMM:   2    -0.321361414482E+03    0.57390E-01   -0.97131E-02  6100   0.989E-01    0.706E-02
RMM:   3    -0.321361349059E+03    0.65423E-04   -0.21018E-03  6036   0.111E-01    0.587E-02
RMM:   4    -0.321361343263E+03    0.57964E-05   -0.14183E-04  3188   0.281E-02
   9 F= -.32136134E+03 E0= -.32136134E+03  d E =-.315563E-01
 curvature:  -0.92 expect dE=-0.202E-01 dE for cont linesearch -0.921E-06
 trial: gam= 0.43121 g(F)=  0.219E-01 g(S)=  0.000E+00 ort = 0.288E-03 (trialstep = 0.993E+00)
 search vector abs. value=  0.375E-01
 bond charge predicted
       N       E                     dE             d eps       ncg     rms          rms(c)
RMM:   1    -0.321762118680E+03   -0.40077E+00   -0.14132E+01  5120   0.625E+00    0.424E-01
RMM:   2    -0.321376539222E+03    0.38558E+00   -0.64139E-01  6100   0.254E+00    0.209E-01
RMM:   3    -0.321375971507E+03    0.56772E-03   -0.12827E-02  6797   0.270E-01    0.158E-01
RMM:   4    -0.321375902788E+03    0.68719E-04   -0.55908E-04  4394   0.500E-02
  10 F= -.32137590E+03 E0= -.32137590E+03  d E =-.145595E-01
 trial-energy change:   -0.014560  1 .order   -0.014509   -0.021866   -0.007153
 step:   1.4758(harm=  1.4758)  dis= 0.01769  next Energy=  -321.377592 (dE=-0.162E-01)
 bond charge predicted
       N       E                     dE             d eps       ncg     rms          rms(c)
RMM:   1    -0.321466253015E+03   -0.90282E-01   -0.32911E+00  5120   0.303E+00    0.206E-01
RMM:   2    -0.321377722389E+03    0.88531E-01   -0.14784E-01  6100   0.122E+00    0.995E-02
RMM:   3    -0.321377626786E+03    0.95603E-04   -0.30154E-03  6149   0.132E-01    0.749E-02
RMM:   4    -0.321377620731E+03    0.60553E-05   -0.19325E-04  3285   0.320E-02
  11 F= -.32137762E+03 E0= -.32137762E+03  d E =-.162775E-01
 curvature:  -1.26 expect dE=-0.222E-01 dE for cont linesearch -0.295E-05
 trial: gam= 0.83480 g(F)=  0.177E-01 g(S)=  0.000E+00 ort =-0.297E-03 (trialstep = 0.944E+00)
 search vector abs. value=  0.433E-01
 bond charge predicted
       N       E                     dE             d eps       ncg     rms          rms(c)
RMM:   1    -0.321790556844E+03   -0.41293E+00   -0.14587E+01  5120   0.657E+00    0.467E-01
RMM:   2    -0.321385713957E+03    0.40484E+00   -0.68648E-01  6100   0.262E+00    0.217E-01
RMM:   3    -0.321385134343E+03    0.57961E-03   -0.15872E-02  6809   0.303E-01    0.164E-01
RMM:   4    -0.321385062634E+03    0.71708E-04   -0.60003E-04  4565   0.538E-02
  12 F= -.32138506E+03 E0= -.32138506E+03  d E =-.744190E-02
 trial-energy change:   -0.007442  1 .order   -0.007447   -0.016435    0.001540
 step:   0.8632(harm=  0.8632)  dis= 0.01030  next Energy=  -321.385134 (dE=-0.751E-02)
 bond charge predicted
       N       E                     dE             d eps       ncg     rms          rms(c)
RMM:   1    -0.321388760325E+03   -0.36260E-02   -0.11919E-01  5120   0.573E-01    0.388E-02
RMM:   2    -0.321385093721E+03    0.36666E-02   -0.60267E-03  5764   0.242E-01    0.176E-02
RMM:   3    -0.321385081535E+03    0.12186E-04   -0.10971E-04  3398   0.283E-02
  13 F= -.32138508E+03 E0= -.32138508E+03  d E =-.746080E-02
 curvature:  -1.07 expect dE=-0.515E-02 dE for cont linesearch -0.139E-05
 trial: gam= 0.24227 g(F)=  0.479E-02 g(S)=  0.000E+00 ort = 0.237E-03 (trialstep = 0.928E+00)
 search vector abs. value=  0.745E-02
 bond charge predicted
       N       E                     dE             d eps       ncg     rms          rms(c)
RMM:   1    -0.321467279032E+03   -0.82185E-01   -0.25300E+00  5120   0.269E+00    0.206E-01
RMM:   2    -0.321388273553E+03    0.79005E-01   -0.13407E-01  6099   0.116E+00    0.827E-02
RMM:   3    -0.321388189369E+03    0.84184E-04   -0.29911E-03  6247   0.130E-01    0.679E-02
RMM:   4    -0.321388181903E+03    0.74664E-05   -0.15563E-04  3157   0.292E-02
  14 F= -.32138818E+03 E0= -.32138818E+03  d E =-.310037E-02
 trial-energy change:   -0.003100  1 .order   -0.003054   -0.004500   -0.001608
 step:   1.4437(harm=  1.4437)  dis= 0.00955  next Energy=  -321.388582 (dE=-0.350E-02)
 bond charge predicted
       N       E                     dE             d eps       ncg     rms          rms(c)
RMM:   1    -0.321413937207E+03   -0.25748E-01   -0.78570E-01  5120   0.149E+00    0.116E-01
RMM:   2    -0.321388793795E+03    0.25143E-01   -0.42886E-02  6096   0.654E-01    0.478E-02
RMM:   3    -0.321388746191E+03    0.47604E-04   -0.10729E-03  5357   0.758E-02    0.369E-02
RMM:   4    -0.321388741552E+03    0.46388E-05   -0.99225E-05  3159   0.269E-02
  15 F= -.32138874E+03 E0= -.32138874E+03  d E =-.366002E-02
 curvature:  -1.11 expect dE=-0.321E-02 dE for cont linesearch -0.257E-06
 trial: gam= 0.57515 g(F)=  0.289E-02 g(S)=  0.000E+00 ort = 0.416E-04 (trialstep = 0.103E+01)
 search vector abs. value=  0.541E-02
 bond charge predicted
       N       E                     dE             d eps       ncg     rms          rms(c)
RMM:   1    -0.321448843767E+03   -0.60098E-01   -0.21551E+00  5120   0.253E+00    0.178E-01
RMM:   2    -0.321390810342E+03    0.58033E-01   -0.10146E-01  6100   0.101E+00    0.770E-02
RMM:   3    -0.321390782299E+03    0.28043E-04   -0.24491E-03  6029   0.117E-01    0.660E-02
RMM:   4    -0.321390779773E+03    0.25255E-05   -0.13147E-04  3150   0.272E-02
  16 F= -.32139078E+03 E0= -.32139078E+03  d E =-.203822E-02
 trial-energy change:   -0.002038  1 .order   -0.001974   -0.003008   -0.000940
 step:   1.4995(harm=  1.4995)  dis= 0.00677  next Energy=  -321.390929 (dE=-0.219E-02)
 reached required accuracy - stopping structural energy minimisation
 writing wavefunctions
