 running on   32 total cores
 distrk:  each k-point on   32 cores,    1 groups
 distr:  one band on    8 cores,    4 groups
 using from now: INCAR     
 vasp.5.4.1 05Feb16 (build Dec 31 2016 05:41:53) complex                        
  
 POSCAR found type information on POSCAR  O  Sn
 POSCAR found :  2 types and      47 ions
 scaLAPACK will be used

 ----------------------------------------------------------------------------- 
|                                                                             |
|  ADVICE TO THIS USER RUNNING 'VASP/VAMP'   (HEAR YOUR MASTER'S VOICE ...):  |
|                                                                             |
|      You have a (more or less) 'large supercell' and for larger cells       |
|      it might be more efficient to use real space projection opertators     |
|      So try LREAL= Auto  in the INCAR   file.                               |
|      Mind: At the moment your POTCAR file does not contain real space       |
|       projectors, and has to be modified,  BUT if you                       |
|      want to do an extremely  accurate calculation you might also keep the  |
|      reciprocal projection scheme          (i.e. LREAL=.FALSE.)             |
|                                                                             |
 ----------------------------------------------------------------------------- 

 LDA part: xc-table for Pade appr. of Perdew
 POSCAR, INCAR and KPOINTS ok, starting setup
 WARNING: small aliasing (wrap around) errors must be expected
 FFT: planning ...
 WAVECAR not read
 entering main loop
       N       E                     dE             d eps       ncg     rms          rms(c)
RMM:   1     0.138985450038E+02    0.13899E+02   -0.23059E+05  1952   0.235E+03
RMM:   2     0.578104708169E+03    0.56421E+03   -0.45040E+04  1952   0.434E+02
RMM:   3    -0.961030973459E+02   -0.67421E+03   -0.12828E+04  1952   0.210E+02
RMM:   4    -0.258573581108E+03   -0.16247E+03   -0.50728E+03  4737   0.160E+02
RMM:   5    -0.321690858919E+03   -0.63117E+02   -0.64493E+02  5045   0.396E+01BRMIX: very serious problems
 the old and the new charge density differ
 old charge density:   402.00000 new  404.99996
    0.416E+01
RMM:   6    -0.277542271920E+03    0.44149E+02   -0.21106E+02  4676   0.261E+01    0.167E+01
RMM:   7    -0.279573284452E+03   -0.20310E+01   -0.38752E+01  5156   0.857E+00    0.954E+00
RMM:   8    -0.279555611144E+03    0.17673E-01   -0.71265E+00  4690   0.565E+00    0.430E+00
RMM:   9    -0.279410354733E+03    0.14526E+00   -0.12767E+00  4827   0.192E+00    0.187E+00
RMM:  10    -0.279384663740E+03    0.25691E-01   -0.61029E-01  4743   0.139E+00    0.473E-01
RMM:  11    -0.279396974674E+03   -0.12311E-01   -0.11831E-01  5115   0.486E-01    0.416E-01
RMM:  12    -0.279395036381E+03    0.19383E-02   -0.32615E-02  4720   0.306E-01    0.165E-01
RMM:  13    -0.279395143646E+03   -0.10727E-03   -0.72345E-03  4141   0.103E-01    0.892E-02
RMM:  14    -0.279395136967E+03    0.66796E-05   -0.17259E-03  3181   0.496E-02    0.337E-02
RMM:  15    -0.279395158119E+03   -0.21152E-04   -0.65440E-04  2888   0.326E-02
   1 F= -.27939516E+03 E0= -.27935781E+03  d E =-.279395E+03
 BRION: g(F)=  0.521E+01 g(S)=  0.000E+00
 bond charge predicted
       N       E                     dE             d eps       ncg     rms          rms(c)
RMM:   1    -0.283159287038E+03   -0.37642E+01   -0.15453E+03  4978   0.881E+01    0.149E+01
RMM:   2    -0.279356587672E+03    0.38027E+01   -0.67441E+01  4656   0.212E+01    0.578E+00
RMM:   3    -0.279634565257E+03   -0.27798E+00   -0.90000E+00  5132   0.633E+00    0.505E+00
RMM:   4    -0.279438942060E+03    0.19562E+00   -0.39396E-01  5018   0.136E+00    0.409E+00
RMM:   5    -0.279378878364E+03    0.60064E-01   -0.11143E-01  4686   0.770E-01    0.260E+00
RMM:   6    -0.279338785229E+03    0.40093E-01   -0.21326E-01  4667   0.105E+00    0.753E-01
RMM:   7    -0.279338022496E+03    0.76273E-03   -0.33653E-02  4746   0.335E-01    0.496E-01
RMM:   8    -0.279338343666E+03   -0.32117E-03   -0.54810E-03  4439   0.144E-01    0.519E-01
RMM:   9    -0.279336408992E+03    0.19347E-02   -0.26705E-03  4431   0.163E-01    0.157E-01
RMM:  10    -0.279336357317E+03    0.51675E-04   -0.52645E-04  3597   0.494E-02
   2 F= -.27933636E+03 E0= -.27930694E+03  d E =0.588008E-01
 BRION: g(F)=  0.724E+01 g(S)=  0.000E+00 retain N=  1 mean eig= 0.45
 eig:   0.455
 bond charge predicted
       N       E                     dE             d eps       ncg     rms          rms(c)
RMM:   1    -0.282203685302E+03   -0.28673E+01   -0.42710E+02  4540   0.426E+01    0.666E+00
RMM:   2    -0.281002739285E+03    0.12009E+01   -0.15812E+01  4672   0.950E+00    0.364E+00
RMM:   3    -0.281012252951E+03   -0.95137E-02   -0.26351E+00  5175   0.299E+00    0.314E+00
RMM:   4    -0.280948539951E+03    0.63713E-01   -0.15001E-01  4657   0.869E-01    0.215E+00
RMM:   5    -0.280934482745E+03    0.14057E-01   -0.30411E-02  4815   0.353E-01    0.140E+00
RMM:   6    -0.280920258025E+03    0.14225E-01   -0.56205E-02  4619   0.441E-01    0.349E-01
RMM:   7    -0.280919711343E+03    0.54668E-03   -0.76032E-03  4736   0.142E-01    0.281E-01
RMM:   8    -0.280919428034E+03    0.28331E-03   -0.12032E-03  3965   0.681E-02    0.477E-02
RMM:   9    -0.280919431841E+03   -0.38069E-05   -0.39338E-04  3365   0.407E-02
   3 F= -.28091943E+03 E0= -.28088436E+03  d E =-.158307E+01
 BRION: g(F)=  0.199E+00 g(S)=  0.000E+00 retain N=  1 mean eig= 0.43
 eig:   0.428
 bond charge predicted
       N       E                     dE             d eps       ncg     rms          rms(c)
RMM:   1    -0.283672482640E+03   -0.27531E+01   -0.69493E+01  4124   0.125E+01    0.217E+00
RMM:   2    -0.281076830306E+03    0.25957E+01   -0.43886E+00  4672   0.544E+00    0.215E+00
RMM:   3    -0.281020236490E+03    0.56594E-01   -0.16111E-01  5123   0.817E-01    0.989E-01
RMM:   4    -0.281015459929E+03    0.47766E-02   -0.75892E-03  4473   0.181E-01    0.688E-01
RMM:   5    -0.281012251374E+03    0.32086E-02   -0.10193E-02  4427   0.192E-01    0.123E-01
RMM:   6    -0.281012279038E+03   -0.27664E-04   -0.68514E-04  3622   0.594E-02
   4 F= -.28101228E+03 E0= -.28097620E+03  d E =-.928472E-01
 BRION: g(F)=  0.662E-01 g(S)=  0.000E+00 retain N=  2 mean eig= 0.50
 eig:   0.501  0.501
 bond charge predicted
       N       E                     dE             d eps       ncg     rms          rms(c)
RMM:   1    -0.281560637521E+03   -0.54839E+00   -0.14666E+01  4009   0.613E+00    0.630E-01
RMM:   2    -0.281050614589E+03    0.51002E+00   -0.91353E-01  4671   0.286E+00    0.349E-01
RMM:   3    -0.281046347154E+03    0.42674E-02   -0.31824E-02  5019   0.419E-01    0.333E-01
RMM:   4    -0.281045141500E+03    0.12057E-02   -0.17204E-03  4160   0.964E-02    0.154E-01
RMM:   5    -0.281045048715E+03    0.92785E-04   -0.37018E-04  3153   0.419E-02
   5 F= -.28104505E+03 E0= -.28101050E+03  d E =-.327697E-01
 BRION: g(F)=  0.305E-01 g(S)=  0.000E+00 retain N=  3 mean eig= 0.26
 eig:   0.375  0.347  0.062
 bond charge predicted
       N       E                     dE             d eps       ncg     rms          rms(c)
RMM:   1    -0.282068429390E+03   -0.10233E+01   -0.34962E+01  3922   0.925E+00    0.794E-01
RMM:   2    -0.281097752866E+03    0.97068E+00   -0.17648E+00  4672   0.385E+00    0.644E-01
RMM:   3    -0.281085080972E+03    0.12672E-01   -0.59912E-02  4994   0.577E-01    0.423E-01
RMM:   4    -0.281083232477E+03    0.18485E-02   -0.42847E-03  4380   0.137E-01    0.232E-01
RMM:   5    -0.281082906456E+03    0.32602E-03   -0.12804E-03  3863   0.688E-02    0.102E-01
RMM:   6    -0.281082894657E+03    0.11799E-04   -0.40759E-04  3171   0.407E-02
   6 F= -.28108289E+03 E0= -.28104955E+03  d E =-.378459E-01
 BRION: g(F)=  0.169E-01 g(S)=  0.000E+00 retain N=  4 mean eig= 1.17
 eig:   1.671  1.671  0.520  0.807
 bond charge predicted
       N       E                     dE             d eps       ncg     rms          rms(c)
RMM:   1    -0.281566408367E+03   -0.48350E+00   -0.16250E+01  3909   0.643E+00    0.490E-01
RMM:   2    -0.281104421389E+03    0.46199E+00   -0.78645E-01  4670   0.265E+00    0.269E-01
RMM:   3    -0.281101006502E+03    0.34149E-02   -0.22903E-02  4927   0.360E-01    0.221E-01
RMM:   4    -0.281100644550E+03    0.36195E-03   -0.15216E-03  3934   0.813E-02    0.141E-01
RMM:   5    -0.281100575149E+03    0.69401E-04   -0.38058E-04  2957   0.390E-02
   7 F= -.28110058E+03 E0= -.28106809E+03  d E =-.176805E-01
 BRION: g(F)=  0.654E-02 g(S)=  0.000E+00 retain N=  5 mean eig= 3.03
 eig:   6.434  6.434  0.908  0.908  0.468
 bond charge predicted
       N       E                     dE             d eps       ncg     rms          rms(c)
RMM:   1    -0.281475026912E+03   -0.37438E+00   -0.16353E+01  3904   0.686E+00    0.538E-01
RMM:   2    -0.281115475266E+03    0.35955E+00   -0.67210E-01  4671   0.249E+00    0.344E-01
RMM:   3    -0.281113221977E+03    0.22533E-02   -0.25269E-02  4914   0.350E-01    0.264E-01
RMM:   4    -0.281112606580E+03    0.61540E-03   -0.14826E-03  4064   0.863E-02    0.158E-01
RMM:   5    -0.281112555739E+03    0.50841E-04   -0.33916E-04  3053   0.383E-02
   8 F= -.28111256E+03 E0= -.28108084E+03  d E =-.119806E-01
 BRION: g(F)=  0.329E-02 g(S)=  0.000E+00 retain N=  5 mean eig= 3.12
 eig:   6.017  6.017  1.279  1.279  1.022
 bond charge predicted
       N       E                     dE             d eps       ncg     rms          rms(c)
RMM:   1    -0.281204740733E+03   -0.92134E-01   -0.29227E+00  3905   0.273E+00    0.194E-01
RMM:   2    -0.281116109810E+03    0.88631E-01   -0.14010E-01  4627   0.114E+00    0.113E-01
WARNING in EDDRMM: call to ZHEGV failed, returncode =   6  3 41
RMM:   3    -0.281115753939E+03    0.35587E-03   -0.30878E-03  4412   0.131E-01    0.943E-02
RMM:   4    -0.281115678874E+03    0.75065E-04   -0.35695E-04  2896   0.391E-02
   9 F= -.28111568E+03 E0= -.28108394E+03  d E =-.312313E-02
 BRION: g(F)=  0.242E-02 g(S)=  0.000E+00 retain N=  5 mean eig= 3.29
 eig:   6.725  6.725  1.104  1.104  0.769
 bond charge predicted
       N       E                     dE             d eps       ncg     rms          rms(c)
RMM:   1    -0.281219372021E+03   -0.10362E+00   -0.44837E+00  3904   0.360E+00    0.238E-01
RMM:   2    -0.281119206521E+03    0.10017E+00   -0.17195E-01  4644   0.129E+00    0.123E-01
RMM:   3    -0.281118944880E+03    0.26164E-03   -0.47997E-03  4479   0.157E-01    0.973E-02
RMM:   4    -0.281118935303E+03    0.95771E-05   -0.35862E-04  2992   0.394E-02
  10 F= -.28111894E+03 E0= -.28108741E+03  d E =-.325643E-02
 BRION: g(F)=  0.925E-03 g(S)=  0.000E+00 retain N=  5 mean eig= 3.67
 eig:   7.031  7.031  1.035  1.625  1.625
 reached required accuracy - stopping structural energy minimisation
 writing wavefunctions
