 vasp.5.4.4.18Apr17-6-g9f103f2a35 (build May 17 2017 21:50:23) complex          
  
 executed on             LinuxIFC date 2017.11.04  22:59:05
 running on  256 total cores
 distrk:  each k-point on  256 cores,    1 groups
 distr:  one band on NCORES_PER_BAND=  64 cores,    4 groups


--------------------------------------------------------------------------------------------------------


 INCAR:
 POTCAR:    PAW_PBE O 08Apr2002                   
 POTCAR:    PAW_PBE Sn_d 06Sep2000                
 POTCAR:    PAW_PBE H 15Jun2001                   

 ----------------------------------------------------------------------------- 
|                                                                             |
|           W    W    AA    RRRRR   N    N  II  N    N   GGGG   !!!           |
|           W    W   A  A   R    R  NN   N  II  NN   N  G    G  !!!           |
|           W    W  A    A  R    R  N N  N  II  N N  N  G       !!!           |
|           W WW W  AAAAAA  RRRRR   N  N N  II  N  N N  G  GGG   !            |
|           WW  WW  A    A  R   R   N   NN  II  N   NN  G    G                |
|           W    W  A    A  R    R  N    N  II  N    N   GGGG   !!!           |
|                                                                             |
|      For optimal performance we recommend to set                            |
|        NCORE= 4 - approx SQRT( number of cores)                             |
|      NCORE specifies how many cores store one orbital (NPAR=cpu/NCORE).     |
|      This setting can  greatly improve the performance of VASP for DFT.     |
|      The default,   NCORE=1            might be grossly inefficient         |
|      on modern multi-core architectures or massively parallel machines.     |
|      Do your own testing !!!!                                               |
|      Unfortunately you need to use the default for GW and RPA calculations. |
|      (for HF NCORE is supported but not extensively tested yet)             |
|                                                                             |
 ----------------------------------------------------------------------------- 

 POTCAR:    PAW_PBE O 08Apr2002                   
   VRHFIN =O: s2p4                                                              
   LEXCH  = PE                                                                  
   EATOM  =   432.3788 eV,   31.7789 Ry                                         
                                                                                
   TITEL  = PAW_PBE O 08Apr2002                                                 
   LULTRA =        F    use ultrasoft PP ?                                      
   IUNSCR =        1    unscreen: 0-lin 1-nonlin 2-no                           
   RPACOR =    1.200    partial core radius                                     
   POMASS =   16.000; ZVAL   =    6.000    mass and valenz                      
   RCORE  =    1.520    outmost cutoff radius                                   
   RWIGS  =    1.550; RWIGS  =    0.820    wigner-seitz radius (au A)           
   ENMAX  =  400.000; ENMIN  =  300.000 eV                                      
   ICORE  =        2    local potential                                         
   LCOR   =        T    correct aug charges                                     
   LPAW   =        T    paw PP                                                  
   EAUG   =  605.392                                                            
   DEXC   =    0.000                                                            
   RMAX   =    1.553    core radius for proj-oper                               
   RAUG   =    1.300    factor for augmentation sphere                          
   RDEP   =    1.550    radius for radial grids                                 
   RDEPT  =    1.329    core radius for aug-charge                              
                                                                                
   Atomic configuration                                                         
    4 entries                                                                   
     n  l   j            E        occ.                                          
     1  0  0.50      -514.6923   2.0000                                         
     2  0  0.50       -23.9615   2.0000                                         
     2  1  0.50        -9.0305   4.0000                                         
     3  2  1.50        -9.5241   0.0000                                         
   Description                                                                  
     l       E           TYP  RCUT    TYP  RCUT                                 
     0    -23.9615318     23  1.200                                             
     0     -9.5240782     23  1.200                                             
     1     -9.0304911     23  1.520                                             
     1      8.1634956     23  1.520                                             
     2     -9.5240782      7  1.500                                             
  local pseudopotential read in
  partial core-charges read in
  partial kinetic energy density read in
  kinetic energy density of atom read in
  atomic valenz-charges read in
  non local Contribution for L=           0  read in
    real space projection operators read in
  non local Contribution for L=           0  read in
    real space projection operators read in
  non local Contribution for L=           1  read in
    real space projection operators read in
  non local Contribution for L=           1  read in
    real space projection operators read in
    PAW grid and wavefunctions read in
 
   number of l-projection  operators is LMAX  =           4
   number of lm-projection operators is LMMAX =           8
 
 POTCAR:    PAW_PBE Sn_d 06Sep2000                
   VRHFIN =Sn: s2p2                                                             
   LEXCH  = PE                                                                  
   EATOM  =  1893.1092 eV,  139.1396 Ry                                         
                                                                                
   TITEL  = PAW_PBE Sn_d 06Sep2000                                              
   LULTRA =        F    use ultrasoft PP ?                                      
   IUNSCR =        1    unscreen: 0-lin 1-nonlin 2-no                           
   RPACOR =    2.300    partial core radius                                     
   POMASS =  118.710; ZVAL   =   14.000    mass and valenz                      
   RCORE  =    2.500    outmost cutoff radius                                   
   RWIGS  =    2.960; RWIGS  =    1.566    wigner-seitz radius (au A)           
   ENMAX  =  241.083; ENMIN  =  180.812 eV                                      
   ICORE  =        3    local potential                                         
   LCOR   =        T    correct aug charges                                     
   LPAW   =        T    paw PP                                                  
   EAUG   =  439.825                                                            
   DEXC   =    0.000                                                            
   RMAX   =    2.560    core radius for proj-oper                               
   RAUG   =    1.300    factor for augmentation sphere                          
   RDEP   =    2.659    radius for radial grids                                 
   RDEPT  =    2.046    core radius for aug-charge                              
                                                                                
   Atomic configuration                                                         
   12 entries                                                                   
     n  l   j            E        occ.                                          
     1  0  0.50    -29007.2859   2.0000                                         
     2  0  0.50     -4378.8056   2.0000                                         
     2  1  1.50     -3930.4293   6.0000                                         
     3  0  0.50      -845.0264   2.0000                                         
     3  1  1.50      -698.5725   6.0000                                         
     3  2  2.50      -473.2839  10.0000                                         
     4  0  0.50      -133.9036   2.0000                                         
     4  1  1.50       -89.6752   6.0000                                         
     4  2  2.50       -25.8375  10.0000                                         
     5  0  0.50       -10.5484   2.0000                                         
     5  1  0.50        -3.6940   2.0000                                         
     4  3  2.50        -2.7416   0.0000                                         
   Description                                                                  
     l       E           TYP  RCUT    TYP  RCUT                                 
     2    -25.8374624     23  2.500                                             
     2     -5.4423304     23  2.500                                             
     0    -10.5483727     23  2.500                                             
     0     13.6058260     23  2.500                                             
     1     -3.6939829     23  2.500                                             
     1      1.9821976     23  2.500                                             
     3     -1.3605826      7  2.500                                             
  local pseudopotential read in
  partial core-charges read in
  partial kinetic energy density read in
  atomic valenz-charges read in
  non local Contribution for L=           2  read in
    real space projection operators read in
  non local Contribution for L=           2  read in
    real space projection operators read in
  non local Contribution for L=           0  read in
    real space projection operators read in
  non local Contribution for L=           0  read in
    real space projection operators read in
  non local Contribution for L=           1  read in
    real space projection operators read in
  non local Contribution for L=           1  read in
    real space projection operators read in
    PAW grid and wavefunctions read in
 
   number of l-projection  operators is LMAX  =           6
   number of lm-projection operators is LMMAX =          18
 
 POTCAR:    PAW_PBE H 15Jun2001                   
   VRHFIN =H: ultrasoft test                                                    
   LEXCH  = PE                                                                  
   EATOM  =    12.4884 eV,    0.9179 Ry                                         
                                                                                
   TITEL  = PAW_PBE H 15Jun2001                                                 
   LULTRA =        F    use ultrasoft PP ?                                      
   IUNSCR =        0    unscreen: 0-lin 1-nonlin 2-no                           
   RPACOR =    0.000    partial core radius                                     
   POMASS =    1.000; ZVAL   =    1.000    mass and valenz                      
   RCORE  =    1.100    outmost cutoff radius                                   
   RWIGS  =    0.700; RWIGS  =    0.370    wigner-seitz radius (au A)           
   ENMAX  =  250.000; ENMIN  =  200.000 eV                                      
   RCLOC  =    0.701    cutoff for local pot                                    
   LCOR   =        T    correct aug charges                                     
   LPAW   =        T    paw PP                                                  
   EAUG   =  400.000                                                            
   RMAX   =    1.123    core radius for proj-oper                               
   RAUG   =    1.200    factor for augmentation sphere                          
   RDEP   =    1.112    radius for radial grids                                 
   RDEPT  =    0.926    core radius for aug-charge                              
                                                                                
   Atomic configuration                                                         
    2 entries                                                                   
     n  l   j            E        occ.                                          
     1  0  0.50        -6.4927   1.0000                                         
     2  1  0.50        -3.4015   0.0000                                         
   Description                                                                  
     l       E           TYP  RCUT    TYP  RCUT                                 
     0     -6.4927494     23  1.100                                             
     0      6.8029130     23  1.100                                             
     1     -4.0817478     23  1.100                                             
  local pseudopotential read in
  atomic valenz-charges read in
  non local Contribution for L=           0  read in
    real space projection operators read in
  non local Contribution for L=           0  read in
    real space projection operators read in
  non local Contribution for L=           1  read in
    real space projection operators read in
    PAW grid and wavefunctions read in
 
   number of l-projection  operators is LMAX  =           3
   number of lm-projection operators is LMMAX =           5
 

 ----------------------------------------------------------------------------- 
|                                                                             |
|  ADVICE TO THIS USER RUNNING 'VASP/VAMP'   (HEAR YOUR MASTER'S VOICE ...):  |
|                                                                             |
|      You have a (more or less) 'large supercell' and for larger cells       |
|      it might be more efficient to use real space projection opertators     |
|      So try LREAL= Auto  in the INCAR   file.                               |
|      Mind:          For very  accurate calculation you might also keep the  |
|      reciprocal projection scheme          (i.e. LREAL=.FALSE.)             |
|                                                                             |
 ----------------------------------------------------------------------------- 

  PAW_PBE O 08Apr2002                   :
 energy of atom  1       EATOM= -432.3788
 kinetic energy error for atom=    0.0258 (will be added to EATOM!!)
  PAW_PBE Sn_d 06Sep2000                :
 energy of atom  2       EATOM=-1893.1092
 kinetic energy error for atom=    0.0038 (will be added to EATOM!!)
  PAW_PBE H 15Jun2001                   :
 energy of atom  3       EATOM=  -12.4884
 kinetic energy error for atom=    0.0028 (will be added to EATOM!!)
 
 
 POSCAR: SnO2                                    
  positions in direct lattice
  velocities in cartesian coordinates
 exchange correlation table for  LEXCH =        8
   RHO(1)=    0.500       N(1)  =     2000
   RHO(2)=  100.500       N(2)  =     4000

 VTST: version 3.1, (03/28/14)

 CHAIN: initializing optimizer
 
 OPT: Using VASP QUASI-newton optimizer
 CHAIN: Read ICHAIN            0
 
 POSCAR: SnO2                                    
  positions in direct lattice
  velocities in cartesian coordinates
 


--------------------------------------------------------------------------------------------------------


 ion  position               nearest neighbor table
   1  0.097  0.903  0.745-  48 2.01  36 2.04  40 2.05
   2  0.406  0.600  0.752-  40 2.03  47 2.03  33 2.04
   3  0.903  0.595  0.749-  38 2.03  43 2.04  34 2.05
   4  0.654  0.152  0.998-  45 2.04  46 2.04  41 2.04
   5  0.849  0.346  0.001-  43 2.04  45 2.04  41 2.04
   6  0.904  0.095  0.243-  36 2.04  48 2.06  45 2.06
   7  0.595  0.402  0.251-  47 2.04  33 2.05  45 2.05
   8  0.652  0.154  0.501-  42 2.04  41 2.04  45 2.04
   9  0.346  0.849  0.498-  42 2.04  44 2.04  40 2.04
  10  0.849  0.345  0.498-  38 2.04  45 2.04  41 2.04
  11  0.601  0.406  0.752-  47 2.03  41 2.03  33 2.04
  12  0.653  0.653  0.001-  47 2.01  37 2.03  34 2.04
  13  0.842  0.841  0.997-  48 1.94  34 2.01  37 2.02
  14  0.903  0.596  0.251-  43 2.03  38 2.04  37 2.05
  15  0.597  0.904  0.251-  46 2.03  42 2.04  37 2.05
  16  0.654  0.654  0.498-  33 1.99  34 2.01  37 2.01
  17  0.847  0.847  0.499-  37 2.04  36 2.05  34 2.05
  18  0.904  0.096  0.746-  48 2.01  36 2.04  41 2.05
  19  0.154  0.652  0.501-  38 2.04  40 2.04  44 2.04
  20  0.596  0.903  0.750-  42 2.03  46 2.04  34 2.05
  21  0.354  0.354  0.517-  35 1.95  33 2.01  39 2.01
  22  0.096  0.904  0.243-  36 2.04  48 2.06  44 2.06
  23  0.402  0.594  0.251-  47 2.04  33 2.05  44 2.05
  24  0.346  0.849  0.001-  46 2.04  44 2.04  40 2.04
  25  0.157  0.157  0.494-  39 2.05  35 2.10  36 2.10
  26  0.147  0.146  0.014-  49 0.99  48 2.13  39 2.18  35 2.29
  27  0.152  0.654  0.998-  43 2.04  44 2.04  40 2.04
  28  0.103  0.404  0.250-  35 2.02  38 2.06  43 2.06
  29  0.398  0.097  0.753-  39 2.01  46 2.05  42 2.07
  30  0.097  0.398  0.754-  39 2.01  43 2.05  38 2.07
  31  0.348  0.348  0.996-  35 1.98  39 2.02  47 2.07
  32  0.404  0.103  0.251-  35 2.02  42 2.06  46 2.06
  33  0.505  0.505  0.503-  16 1.99  21 2.01   2 2.04  11 2.04   7 2.05  23 2.05  47 3.13  47 3.17
                            35 3.47  34 3.59  37 3.63  40 3.67  41 3.68  44 3.70  45 3.70  39 3.72
  34  0.748  0.748  0.747-  16 2.01  13 2.01  12 2.04  17 2.05  20 2.05   3 2.05  37 3.13  37 3.18
                            48 3.53  33 3.59  47 3.63  42 3.69  38 3.69  43 3.70  46 3.70  36 3.72
  35  0.271  0.271  0.264-  21 1.95  31 1.98  28 2.02  32 2.02  49 2.08  25 2.10  26 2.29  39 3.08
                            39 3.25  33 3.47  47 3.52  38 3.66  42 3.66  46 3.73  43 3.74
  36  0.000  1.000  0.495-   1 2.04  18 2.04  22 2.04   6 2.04  17 2.05  25 2.10  48 3.12  48 3.20
                            45 3.68  44 3.68  37 3.68  41 3.70  40 3.71  39 3.72  34 3.72
  37  0.749  0.749  0.251-  16 2.01  13 2.02  12 2.03  17 2.04  15 2.05  14 2.05  34 3.13  34 3.18
                            48 3.57  33 3.63  47 3.65  36 3.68  43 3.69  46 3.69  42 3.69  38 3.70
  38  0.001  0.499  0.501-   3 2.03  10 2.04  14 2.04  19 2.04  28 2.06  30 2.07  43 3.15  43 3.15
                            35 3.66  41 3.67  39 3.68  44 3.69  34 3.69  37 3.70  40 3.70  45 3.70
  39  0.251  0.252  0.751-  30 2.01  29 2.01  21 2.01  31 2.02  25 2.05  26 2.18  35 3.08  35 3.25
                            38 3.68  42 3.68  46 3.69  43 3.69  47 3.71  36 3.72  33 3.72
  40  0.252  0.750  0.750-   2 2.03   9 2.04  27 2.04  19 2.04  24 2.04   1 2.05  44 3.15  44 3.15
                            48 3.67  33 3.67  42 3.68  46 3.68  47 3.69  38 3.70  43 3.70  36 3.71
  41  0.751  0.251  0.750-  11 2.03   4 2.04   8 2.04  10 2.04   5 2.04  18 2.05  45 3.15  45 3.15
                            48 3.67  38 3.67  33 3.68  43 3.68  47 3.68  42 3.70  46 3.70  36 3.70
  42  0.500  0.001  0.501-  20 2.03   9 2.04  15 2.04   8 2.04  32 2.06  29 2.07  46 3.15  46 3.15
                            35 3.66  40 3.68  39 3.68  34 3.69  45 3.69  37 3.69  41 3.70  44 3.70
  43  1.000  0.500  0.001-  14 2.03   5 2.04   3 2.04  27 2.04  30 2.05  28 2.06  38 3.15  38 3.15
                            44 3.68  41 3.68  37 3.69  45 3.69  39 3.69  34 3.70  40 3.70  35 3.74
  44  0.250  0.749  0.249-  24 2.04   9 2.04  27 2.04  19 2.04  23 2.05  22 2.06  40 3.15  40 3.15
                            43 3.68  36 3.68  38 3.69  47 3.69  46 3.69  33 3.70  42 3.70  48 3.72
  45  0.750  0.249  0.249-   5 2.04  10 2.04   4 2.04   8 2.04   7 2.05   6 2.06  41 3.15  41 3.15
                            46 3.68  36 3.68  47 3.69  42 3.69  43 3.69  38 3.70  33 3.70  48 3.72
  46  0.500  0.000  0.001-  15 2.03  24 2.04  20 2.04   4 2.04  29 2.05  32 2.06  42 3.15  42 3.15
                            45 3.68  40 3.68  37 3.69  44 3.69  39 3.69  34 3.70  41 3.70  35 3.73
  47  0.503  0.503  0.000-  12 2.01  11 2.03   2 2.03   7 2.04  23 2.04  31 2.07  33 3.13  33 3.17
                            35 3.52  34 3.63  37 3.65  41 3.68  45 3.69  40 3.69  44 3.69  39 3.71
  48  0.987  0.986  0.989-  13 1.94   1 2.01  18 2.01  22 2.06   6 2.06  49 2.12  26 2.13  36 3.12
                            36 3.20  34 3.53  37 3.57  40 3.67  41 3.67  44 3.72  45 3.72
  49  0.122  0.123  0.164-  26 0.99  35 2.08  48 2.12
 
  LATTYP: Found a simple tetragonal cell.
 ALAT       =     9.4320271667
 C/A-ratio  =     0.6685526591
  
  Lattice vectors:
  
 A1 = (   9.4320271667,   0.0000000000,   0.0000000000)
 A2 = (   0.0000000000,   9.4320271667,   0.0000000000)
 A3 = (   0.0000000000,   0.0000000000,   6.3058068432)


Analysis of symmetry for initial positions (statically):
=====================================================================
 Subroutine PRICEL returns:
 Original cell was already a primitive cell.
 

 Routine SETGRP: Setting up the symmetry group for a 
 simple tetragonal supercell.


 Subroutine GETGRP returns: Found  1 space group operations
 (whereof  1 operations were pure point group operations)
 out of a pool of 16 trial point group operations.


The static configuration has the point symmetry C_1 .


Analysis of symmetry for dynamics (positions and initial velocities):
=====================================================================
 Subroutine PRICEL returns:
 Original cell was already a primitive cell.
 

 Routine SETGRP: Setting up the symmetry group for a 
 simple tetragonal supercell.


 Subroutine GETGRP returns: Found  1 space group operations
 (whereof  1 operations were pure point group operations)
 out of a pool of 16 trial point group operations.


The dynamic configuration has the point symmetry C_1 .


Analysis of constrained symmetry for selective dynamics:
=====================================================================
 Subroutine PRICEL returns:
 Original cell was already a primitive cell.
 

 Routine SETGRP: Setting up the symmetry group for a 
 simple tetragonal supercell.


 Subroutine GETGRP returns: Found  1 space group operations
 (whereof  1 operations were pure point group operations)
 out of a pool of 16 trial point group operations.


The constrained configuration has the point symmetry C_1 .


 Subroutine INISYM returns: Found  1 space group operations
 (whereof  1 operations are pure point group operations),
 and found     1 'primitive' translations

 
 
 KPOINTS: Automatic mesh                          

Automatic generation of k-mesh.
Space group operators:
 irot       det(A)        alpha          n_x          n_y          n_z        tau_x        tau_y        tau_z
    1     1.000000     0.000000     1.000000     0.000000     0.000000     0.000000     0.000000     0.000000
 
 Subroutine IBZKPT returns following result:
 ===========================================
 
 Found     18 irreducible k-points:
 
 Following reciprocal coordinates:
            Coordinates               Weight
  0.000000  0.000000  0.125000      2.000000
  0.333333  0.000000  0.125000      2.000000
 -0.333333  0.000000  0.125000      2.000000
  0.000000  0.333333  0.125000      2.000000
  0.333333  0.333333  0.125000      2.000000
 -0.333333  0.333333  0.125000      2.000000
  0.000000 -0.333333  0.125000      2.000000
  0.333333 -0.333333  0.125000      2.000000
 -0.333333 -0.333333  0.125000      2.000000
  0.000000  0.000000  0.375000      2.000000
  0.333333  0.000000  0.375000      2.000000
 -0.333333  0.000000  0.375000      2.000000
  0.000000  0.333333  0.375000      2.000000
  0.333333  0.333333  0.375000      2.000000
 -0.333333  0.333333  0.375000      2.000000
  0.000000 -0.333333  0.375000      2.000000
  0.333333 -0.333333  0.375000      2.000000
 -0.333333 -0.333333  0.375000      2.000000
 
 Following cartesian coordinates:
            Coordinates               Weight
  0.000000  0.000000  0.019823      2.000000
  0.035341  0.000000  0.019823      2.000000
 -0.035341  0.000000  0.019823      2.000000
  0.000000  0.035341  0.019823      2.000000
  0.035341  0.035341  0.019823      2.000000
 -0.035341  0.035341  0.019823      2.000000
  0.000000 -0.035341  0.019823      2.000000
  0.035341 -0.035341  0.019823      2.000000
 -0.035341 -0.035341  0.019823      2.000000
  0.000000  0.000000  0.059469      2.000000
  0.035341  0.000000  0.059469      2.000000
 -0.035341  0.000000  0.059469      2.000000
  0.000000  0.035341  0.059469      2.000000
  0.035341  0.035341  0.059469      2.000000
 -0.035341  0.035341  0.059469      2.000000
  0.000000 -0.035341  0.059469      2.000000
  0.035341 -0.035341  0.059469      2.000000
 -0.035341 -0.035341  0.059469      2.000000
 


--------------------------------------------------------------------------------------------------------




 Dimension of arrays:
   k-points           NKPTS =     18   k-points in BZ     NKDIM =     18   number of bands    NBANDS=    252
   number of dos      NEDOS =    301   number of ions     NIONS =     49
   non local maximal  LDIM  =      6   non local SUM 2l+1 LMDIM =     18
   total plane-waves  NPLWV = 235200
   max r-space proj   IRMAX =      1   max aug-charges    IRDMAX= 149969
   dimension x,y,z NGX =    70 NGY =   70 NGZ =   48
   dimension x,y,z NGXF=   140 NGYF=  140 NGZF=   96
   support grid    NGXF=   280 NGYF=  280 NGZF=  192
   ions per type =              32  16   1
   NGX,Y,Z   is equivalent  to a cutoff of  12.34, 12.34, 12.65 a.u.
   NGXF,Y,Z  is equivalent  to a cutoff of  24.68, 24.68, 25.31 a.u.

 SYSTEM =  SnO2                                    
 POSCAR =  SnO2                                    

 Startparameter for this run:
   NWRITE =      2    write-flag & timer
   PREC   = accura    normal or accurate (medium, high low for compatibility)
   ISTART =      1    job   : 0-new  1-cont  2-samecut
   ICHARG =      2    charge: 1-file 2-atom 10-const
   ISPIN  =      1    spin polarized calculation?
   LNONCOLLINEAR =      F non collinear calculations
   LSORBIT =      F    spin-orbit coupling
   INIWAV =      1    electr: 0-lowe 1-rand  2-diag
   LASPH  =      F    aspherical Exc in radial PAW
   METAGGA=      F    non-selfconsistent MetaGGA calc.

 Electronic Relaxation 1
   ENCUT  =  480.0 eV  35.28 Ry    5.94 a.u.  16.85 16.85 11.26*2*pi/ulx,y,z
   ENINI  =  480.0     initial cutoff
   ENAUG  =  605.4 eV  augmentation charge cutoff
   NELM   =     60;   NELMIN=  2; NELMDL=  5     # of ELM steps 
   EDIFF  = 0.1E-03   stopping-criterion for ELM
   LREAL  =      F    real-space projection
   NLSPLINE    = F    spline interpolate recip. space projectors
   LCOMPAT=      F    compatible to vasp.4.4
   GGA_COMPAT  = T    GGA compatible to vasp.4.4-vasp.4.6
   LMAXPAW     = -100 max onsite density
   LMAXMIX     =    4 max onsite mixed and CHGCAR
   VOSKOWN=      0    Vosko Wilk Nusair interpolation
   ROPT   =    0.00000   0.00000   0.00000
 Ionic relaxation
   EDIFFG = -.5E-01   stopping-criterion for IOM
   NSW    =     50    number of steps for IOM
   NBLOCK =      1;   KBLOCK =     50    inner block; outer block 
   IBRION =      1    ionic relax: 0-MD 1-quasi-New 2-CG
   NFREE  =      0    steps in history (QN), initial steepest desc. (CG)
   ISIF   =      2    stress and relaxation
   IWAVPR =     11    prediction:  0-non 1-charg 2-wave 3-comb
   ISYM   =      2    0-nonsym 1-usesym 2-fastsym
   LCORR  =      T    Harris-Foulkes like correction to forces

   POTIM  = 0.5000    time-step for ionic-motion
   TEIN   =    0.0    initial temperature
   TEBEG  =    0.0;   TEEND  =   0.0 temperature during run
   SMASS  =  -3.00    Nose mass-parameter (am)
   estimated Nose-frequenzy (Omega)   =  0.10E-29 period in steps =****** mass=  -0.203E-26a.u.
   SCALEE = 1.0000    scale energy and forces
   NPACO  =    256;   APACO  = 16.0  distance and # of slots for P.C.
   PSTRESS=    0.0 pullay stress

  Mass of Ions in am
   POMASS =  16.00118.71  1.00
  Ionic Valenz
   ZVAL   =   6.00 14.00  1.00
  Atomic Wigner-Seitz radii
   RWIGS  =  -1.00 -1.00 -1.00
  virtual crystal weights 
   VCA    =   1.00  1.00  1.00
   NELECT =     416.0000    total number of electrons
   NUPDOWN=      -1.0000    fix difference up-down

 DOS related values:
   EMIN   =  10.00;   EMAX   =-10.00  energy-range for DOS
   EFERMI =   0.00
   ISMEAR =     0;   SIGMA  =   0.10  broadening in eV -4-tet -1-fermi 0-gaus

 Electronic relaxation 2 (details)
   IALGO  =     48    algorithm
   LDIAG  =      T    sub-space diagonalisation (order eigenvalues)
   LSUBROT=      F    optimize rotation matrix (better conditioning)
   TURBO    =      0    0=normal 1=particle mesh
   IRESTART =      0    0=no restart 2=restart with 2 vectors
   NREBOOT  =      0    no. of reboots
   NMIN     =      0    reboot dimension
   EREF     =   0.00    reference energy to select bands
   IMIX   =      4    mixing-type and parameters
     AMIX     =   0.40;   BMIX     =  1.00
     AMIX_MAG =   1.60;   BMIX_MAG =  1.00
     AMIN     =   0.10
     WC   =   100.;   INIMIX=   1;  MIXPRE=   1;  MAXMIX= -45

 Intra band minimization:
   WEIMIN = 0.0010     energy-eigenvalue tresh-hold
   EBREAK =  0.99E-07  absolut break condition
   DEPER  =   0.30     relativ break condition  

   TIME   =   0.40     timestep for ELM

  volume/ion in A,a.u.               =      11.45        77.26
  Fermi-wavevector in a.u.,A,eV,Ry     =   1.481798  2.800192 29.874659  2.195726
  Thomas-Fermi vector in A             =   2.595664
 
 Write flags
   LWAVE        =      T    write WAVECAR
   LDOWNSAMPLE  =      F    k-point downsampling of WAVECAR
   LCHARG       =      T    write CHGCAR
   LVTOT        =      F    write LOCPOT, total local potential
   LVHAR        =      F    write LOCPOT, Hartree potential only
   LELF         =      F    write electronic localiz. function (ELF)
   LORBIT       =      0    0 simple, 1 ext, 2 COOP (PROOUT), +10 PAW based schemes


 Dipole corrections
   LMONO  =      F    monopole corrections only (constant potential shift)
   LDIPOL =      F    correct potential (dipole corrections)
   IDIPOL =      0    1-x, 2-y, 3-z, 4-all directions 
   EPSILON=  1.0000000 bulk dielectric constant

 LDA+U is selected, type is set to LDAUTYPE =  2
   angular momentum for each species LDAUL =    -1    2   -1
   U (eV)           for each species LDAUU =   0.0  4.0  0.0
   J (eV)           for each species LDAUJ =   0.0  0.0  0.0
 Exchange correlation treatment:
   GGA     =    --    GGA type
   LEXCH   =     8    internal setting for exchange type
   VOSKOWN=      0    Vosko Wilk Nusair interpolation
   LHFCALC =     F    Hartree Fock is set to
   LHFONE  =     F    Hartree Fock one center treatment
   AEXX    =    0.0000 exact exchange contribution

 Linear response parameters
   LEPSILON=     F    determine dielectric tensor
   LRPA    =     F    only Hartree local field effects (RPA)
   LNABLA  =     F    use nabla operator in PAW spheres
   LVEL    =     F    velocity operator in full k-point grid
   LINTERFAST=   F  fast interpolation
   KINTER  =     0    interpolate to denser k-point grid
   CSHIFT  =0.1000    complex shift for real part using Kramers Kronig
   OMEGAMAX=  -1.0    maximum frequency
   DEG_THRESHOLD= 0.2000000E-02 threshold for treating states as degnerate
   RTIME   =   -0.100 relaxation time in fs
  (WPLASMAI=    0.000 imaginary part of plasma frequency in eV, 0.658/RTIME)
   DFIELD  = 0.0000000 0.0000000 0.0000000 field for delta impulse in time
 
 Orbital magnetization related:
   ORBITALMAG=     F  switch on orbital magnetization
   LCHIMAG   =     F  perturbation theory with respect to B field
   DQ        =  0.001000  dq finite difference perturbation B field
   LLRAUG    =     F  two centre corrections for induced B field



--------------------------------------------------------------------------------------------------------


 quasi-Newton-method for relaxation of ions
   using selective dynamics as specified on POSCAR
 charge density and potential will be updated during run
 non-spin polarized calculation
 RMM-DIIS sequential band-by-band
 perform sub-space diagonalisation
    before iterative eigenvector-optimisation
 modified Broyden-mixing scheme, WC =      100.0
 initial mixing is a Kerker type mixing with AMIX =  0.4000 and BMIX =      1.0000
 Hartree-type preconditioning will be used
 using additional bands           44
 reciprocal scheme for non local part
 use partial core corrections
 calculate Harris-corrections to forces 
   (improved forces if not selfconsistent)
 use gradient corrections 
 use of overlap-Matrix (Vanderbilt PP)
 Gauss-broadening in eV      SIGMA  =   0.10


--------------------------------------------------------------------------------------------------------


  energy-cutoff  :      480.00
  volume of cell :      560.98
      direct lattice vectors                 reciprocal lattice vectors
     9.432027167  0.000000000  0.000000000     0.106021747  0.000000000  0.000000000
     0.000000000  9.432027167  0.000000000     0.000000000  0.106021747  0.000000000
     0.000000000  0.000000000  6.305806843     0.000000000  0.000000000  0.158583989

  length of vectors
     9.432027167  9.432027167  6.305806843     0.106021747  0.106021747  0.158583989


 
 old parameters found on file WAVECAR:
  energy-cutoff  :      480.00
  volume of cell :      560.98
      direct lattice vectors                 reciprocal lattice vectors
     9.432027167  0.000000000  0.000000000     0.106021747  0.000000000  0.000000000
     0.000000000  9.432027167  0.000000000     0.000000000  0.106021747  0.000000000
     0.000000000  0.000000000  6.305806843     0.000000000  0.000000000  0.158583989

  length of vectors

 
 k-points in units of 2pi/SCALE and weight: Automatic mesh                          
   0.00000000  0.00000000  0.01982300       0.056
   0.03534058  0.00000000  0.01982300       0.056
  -0.03534058  0.00000000  0.01982300       0.056
   0.00000000  0.03534058  0.01982300       0.056
   0.03534058  0.03534058  0.01982300       0.056
  -0.03534058  0.03534058  0.01982300       0.056
   0.00000000 -0.03534058  0.01982300       0.056
   0.03534058 -0.03534058  0.01982300       0.056
  -0.03534058 -0.03534058  0.01982300       0.056
   0.00000000  0.00000000  0.05946900       0.056
   0.03534058  0.00000000  0.05946900       0.056
  -0.03534058  0.00000000  0.05946900       0.056
   0.00000000  0.03534058  0.05946900       0.056
   0.03534058  0.03534058  0.05946900       0.056
  -0.03534058  0.03534058  0.05946900       0.056
   0.00000000 -0.03534058  0.05946900       0.056
   0.03534058 -0.03534058  0.05946900       0.056
  -0.03534058 -0.03534058  0.05946900       0.056
 
 k-points in reciprocal lattice and weights: Automatic mesh                          
   0.00000000  0.00000000  0.12500000       0.056
   0.33333333  0.00000000  0.12500000       0.056
  -0.33333333  0.00000000  0.12500000       0.056
   0.00000000  0.33333333  0.12500000       0.056
   0.33333333  0.33333333  0.12500000       0.056
  -0.33333333  0.33333333  0.12500000       0.056
   0.00000000 -0.33333333  0.12500000       0.056
   0.33333333 -0.33333333  0.12500000       0.056
  -0.33333333 -0.33333333  0.12500000       0.056
   0.00000000  0.00000000  0.37500000       0.056
   0.33333333  0.00000000  0.37500000       0.056
  -0.33333333  0.00000000  0.37500000       0.056
   0.00000000  0.33333333  0.37500000       0.056
   0.33333333  0.33333333  0.37500000       0.056
  -0.33333333  0.33333333  0.37500000       0.056
   0.00000000 -0.33333333  0.37500000       0.056
   0.33333333 -0.33333333  0.37500000       0.056
  -0.33333333 -0.33333333  0.37500000       0.056
 
 position of ions in fractional coordinates (direct lattice) 
   0.09705175  0.90324019  0.74530641
   0.40636482  0.60041693  0.75188860
   0.90273623  0.59541991  0.74940102
   0.65354830  0.15247992  0.99833231
   0.84886047  0.34589777  0.00122557
   0.90441425  0.09508668  0.24306161
   0.59475824  0.40154735  0.25113142
   0.65245122  0.15356467  0.50081070
   0.34572858  0.84883089  0.49800084
   0.84942666  0.34505016  0.49802615
   0.60098150  0.40618633  0.75165784
   0.65330962  0.65336378  0.00124324
   0.84168010  0.84110617  0.99718976
   0.90342910  0.59623306  0.25080072
   0.59654919  0.90373309  0.25058732
   0.65372528  0.65405568  0.49825963
   0.84687501  0.84667713  0.49917659
   0.90362785  0.09643145  0.74566138
   0.15382800  0.65209991  0.50078814
   0.59566782  0.90300679  0.74966901
   0.35445697  0.35440574  0.51680815
   0.09557315  0.90389624  0.24339622
   0.40169266  0.59416553  0.25091277
   0.34627326  0.84852537  0.00123786
   0.15731535  0.15743058  0.49380177
   0.14681536  0.14606708  0.01438608
   0.15237982  0.65359165  0.99830181
   0.10307942  0.40394738  0.25048968
   0.39838196  0.09723489  0.75333806
   0.09730549  0.39849837  0.75353236
   0.34828624  0.34800355  0.99646766
   0.40398474  0.10304136  0.25081066
   0.50504347  0.50481299  0.50293442
   0.74771790  0.74777546  0.74718256
   0.27087365  0.27086413  0.26391608
   0.00025504  0.99994413  0.49534827
   0.74920154  0.74924960  0.25096044
   0.00068771  0.49936601  0.50064453
   0.25147149  0.25156828  0.75050033
   0.25158013  0.75031294  0.74954727
   0.75077921  0.25109480  0.74958184
   0.49955564  0.00060422  0.50068552
   0.99981798  0.50026953  0.00092524
   0.24982713  0.74922668  0.24930099
   0.74967588  0.24938528  0.24930014
   0.50010068  0.00005264  0.00096803
   0.50328500  0.50274430  0.00005455
   0.98729254  0.98642341  0.98888007
   0.12227658  0.12307002  0.16356840
 
 position of ions in cartesian coordinates  (Angst):
   0.91539474  8.51938601  4.69975826
   3.83284402  5.66314880  4.74126428
   8.51463265  5.61601677  4.72557808
   6.16428532  1.43819475  6.29529071
   8.00647501  3.26251716  0.00772821
   8.53045978  0.89686015  1.53269956
   5.60977588  3.78740551  1.58358623
   6.15393763  1.44842614  3.15801554
   3.26092136  8.00619601  3.14029710
   8.01181533  3.25452248  3.14045670
   5.66847383  3.83116050  4.73980915
   6.16203408  6.16254492  0.00783963
   7.93874957  7.93333625  6.28808601
   8.52116781  5.62368642  1.58150090
   5.62666817  8.52403506  1.58015524
   6.16595460  6.16907094  3.14192898
   7.98774810  7.98588169  3.14771116
   8.52304243  0.90954406  4.70199663
   1.45090988  6.15062407  3.15787328
   5.61835506  8.51718458  4.72726797
   3.34324777  3.34276457  3.25889237
   0.90144855  8.52557389  1.53480955
   3.78877608  5.60418542  1.58220746
   3.26605880  8.00331434  0.00780571
   1.48380265  1.48488951  3.11381858
   1.38476646  1.37770867  0.09071584
   1.43725060  6.16469420  6.29509839
   0.97224789  3.81004266  1.57953954
   3.75754947  0.91712212  4.75040429
   0.91778803  3.75864745  4.75162951
   3.28504528  3.28237894  6.28353259
   3.81039504  0.97188891  1.58156358
   4.76358373  4.76140984  3.17140731
   7.05249555  7.05303845  4.71158890
   2.55488763  2.55479783  1.66420382
   0.00240554  9.43150020  3.12357051
   7.06648928  7.06694258  1.58250806
   0.00648650  4.71003377  3.15696770
   2.37188593  2.37279885  4.73251012
   2.37291062  7.07697203  4.72650030
   7.08136990  2.36833298  4.72671830
   4.71182237  0.00569902  3.15722618
   9.43031035  4.71855580  0.00583438
   2.35637628  7.06672640  1.57204389
   7.07096327  2.35220874  1.57203853
   4.71696320  0.00049650  0.00610421
   4.74699779  4.74189790  0.00034398
   9.31217006  9.30397240  6.23568671
   1.15331602  1.16079977  1.03143074
 


--------------------------------------------------------------------------------------------------------


 k-point  1 :   0.0000 0.0000 0.1250  plane waves:   13447
 k-point  2 :   0.3333 0.0000 0.1250  plane waves:   13402
 k-point  3 :  -0.3333 0.0000 0.1250  plane waves:   13402
 k-point  4 :   0.0000 0.3333 0.1250  plane waves:   13402
 k-point  5 :   0.3333 0.3333 0.1250  plane waves:   13398
 k-point  6 :  -0.3333 0.3333 0.1250  plane waves:   13398
 k-point  7 :   0.0000-0.3333 0.1250  plane waves:   13402
 k-point  8 :   0.3333-0.3333 0.1250  plane waves:   13398
 k-point  9 :  -0.3333-0.3333 0.1250  plane waves:   13398
 k-point 10 :   0.0000 0.0000 0.3750  plane waves:   13390
 k-point 11 :   0.3333 0.0000 0.3750  plane waves:   13392
 k-point 12 :  -0.3333 0.0000 0.3750  plane waves:   13392
 k-point 13 :   0.0000 0.3333 0.3750  plane waves:   13392
 k-point 14 :   0.3333 0.3333 0.3750  plane waves:   13396
 k-point 15 :  -0.3333 0.3333 0.3750  plane waves:   13396
 k-point 16 :   0.0000-0.3333 0.3750  plane waves:   13392
 k-point 17 :   0.3333-0.3333 0.3750  plane waves:   13396
 k-point 18 :  -0.3333-0.3333 0.3750  plane waves:   13396

 maximum and minimum number of plane-waves per node :       226      195

 maximum number of plane-waves:     13447
 maximum index in each direction: 
   IXMAX=   17   IYMAX=   17   IZMAX=   11
   IXMIN=  -17   IYMIN=  -17   IZMIN=  -11


 parallel 3D FFT for wavefunctions:
    minimum data exchange during FFTs selected (reduces bandwidth)
 parallel 3D FFT for charge:
    minimum data exchange during FFTs selected (reduces bandwidth)


 total amount of memory used by VASP MPI-rank0    39434. kBytes
=======================================================================

   base      :      30000. kBytes
   nonl-proj :       1883. kBytes
   fftplans  :       2038. kBytes
   grid      :       1144. kBytes
   one-center:         15. kBytes
   wavefun   :       4354. kBytes
 
     INWAV:  cpu time    8.9068: real time    9.0791
 Broyden mixing: mesh for mixing (old mesh)
   NGX = 33   NGY = 33   NGZ = 23
  (NGX  =140   NGY  =140   NGZ  = 96)
  gives a total of  25047 points

 initial charge density was supplied:
 charge density of overlapping atoms calculated
 number of electron     417.0000000 magnetization 
 keeping initial charge density in first step


--------------------------------------------------------------------------------------------------------


 Maximum index for augmentation-charges         5344 (set IRDMAX)


--------------------------------------------------------------------------------------------------------


 First call to EWALD:  gamma=   0.215
 Maximum number of real-space cells 2x 2x 3
 Maximum number of reciprocal cells 3x 3x 2

    FEWALD:  cpu time    0.0075: real time    0.0075


--------------------------------------- Iteration      1(   1)  ---------------------------------------


    POTLOK:  cpu time    0.0860: real time    0.1108
    SETDIJ:  cpu time    0.1088: real time    0.1108
atom =  33  type =  2  l = 2
 
 onsite density matrix
 
spin component  1
 
  0.9926  0.0000  0.0000  0.0000  0.0000
  0.0000  0.9926  0.0000  0.0000  0.0000
  0.0000  0.0000  0.9926  0.0000  0.0000
  0.0000  0.0000  0.0000  0.9926  0.0000
  0.0000  0.0000  0.0000  0.0000  0.9926
 
spin component  2
 
  0.9926  0.0000  0.0000  0.0000  0.0000
  0.0000  0.9926  0.0000  0.0000  0.0000
  0.0000  0.0000  0.9926  0.0000  0.0000
  0.0000  0.0000  0.0000  0.9926  0.0000
  0.0000  0.0000  0.0000  0.0000  0.9926
 
 occupancies and eigenvectors
 
  o =  0.9926  v =  1.0000  0.0000  0.0000  0.0000  0.0000  0.0000  0.0000  0.0000  0.0000  0.0000      0.0000  0.0000  0.0000  0.0000  0.0000  0.0000  0.0000  0.0000  0.0000  0.0000
  o =  0.9926  v =  0.0000  1.0000  0.0000  0.0000  0.0000  0.0000  0.0000  0.0000  0.0000  0.0000      0.0000  0.0000  0.0000  0.0000  0.0000  0.0000  0.0000  0.0000  0.0000  0.0000
  o =  0.9926  v =  0.0000  0.0000  1.0000  0.0000  0.0000  0.0000  0.0000  0.0000  0.0000  0.0000      0.0000  0.0000  0.0000  0.0000  0.0000  0.0000  0.0000  0.0000  0.0000  0.0000
  o =  0.9926  v =  0.0000  0.0000  0.0000  0.0000 -1.0000  0.0000  0.0000  0.0000  0.0000  0.0000      0.0000  0.0000  0.0000  0.0000  0.0000  0.0000  0.0000  0.0000  0.0000  0.0000
  o =  0.9926  v =  0.0000  0.0000  0.0000 -1.0000  0.0000  0.0000  0.0000  0.0000  0.0000  0.0000      0.0000  0.0000  0.0000  0.0000  0.0000  0.0000  0.0000  0.0000  0.0000  0.0000
  o =  0.9926  v =  0.0000  0.0000  0.0000  0.0000  0.0000  1.0000  0.0000  0.0000  0.0000  0.0000      0.0000  0.0000  0.0000  0.0000  0.0000  0.0000  0.0000  0.0000  0.0000  0.0000
  o =  0.9926  v =  0.0000  0.0000  0.0000  0.0000  0.0000  0.0000  1.0000  0.0000  0.0000  0.0000      0.0000  0.0000  0.0000  0.0000  0.0000  0.0000  0.0000  0.0000  0.0000  0.0000
  o =  0.9926  v =  0.0000  0.0000  0.0000  0.0000  0.0000  0.0000  0.0000  1.0000  0.0000  0.0000      0.0000  0.0000  0.0000  0.0000  0.0000  0.0000  0.0000  0.0000  0.0000  0.0000
  o =  0.9926  v =  0.0000  0.0000  0.0000  0.0000  0.0000  0.0000  0.0000  0.0000  0.0000 -1.0000      0.0000  0.0000  0.0000  0.0000  0.0000  0.0000  0.0000  0.0000  0.0000  0.0000
  o =  0.9926  v =  0.0000  0.0000  0.0000  0.0000  0.0000  0.0000  0.0000  0.0000 -1.0000  0.0000      0.0000  0.0000  0.0000  0.0000  0.0000  0.0000  0.0000  0.0000  0.0000  0.0000
atom =  34  type =  2  l = 2
 
 onsite density matrix
 
spin component  1
 
  0.9926  0.0000  0.0000  0.0000  0.0000
  0.0000  0.9926  0.0000  0.0000  0.0000
  0.0000  0.0000  0.9926  0.0000  0.0000
  0.0000  0.0000  0.0000  0.9926  0.0000
  0.0000  0.0000  0.0000  0.0000  0.9926
 
spin component  2
 
  0.9926  0.0000  0.0000  0.0000  0.0000
  0.0000  0.9926  0.0000  0.0000  0.0000
  0.0000  0.0000  0.9926  0.0000  0.0000
  0.0000  0.0000  0.0000  0.9926  0.0000
  0.0000  0.0000  0.0000  0.0000  0.9926
 
 occupancies and eigenvectors
 
  o =  0.9926  v =  1.0000  0.0000  0.0000  0.0000  0.0000  0.0000  0.0000  0.0000  0.0000  0.0000      0.0000  0.0000  0.0000  0.0000  0.0000  0.0000  0.0000  0.0000  0.0000  0.0000
  o =  0.9926  v =  0.0000  1.0000  0.0000  0.0000  0.0000  0.0000  0.0000  0.0000  0.0000  0.0000      0.0000  0.0000  0.0000  0.0000  0.0000  0.0000  0.0000  0.0000  0.0000  0.0000
  o =  0.9926  v =  0.0000  0.0000  1.0000  0.0000  0.0000  0.0000  0.0000  0.0000  0.0000  0.0000      0.0000  0.0000  0.0000  0.0000  0.0000  0.0000  0.0000  0.0000  0.0000  0.0000
  o =  0.9926  v =  0.0000  0.0000  0.0000  0.0000 -1.0000  0.0000  0.0000  0.0000  0.0000  0.0000      0.0000  0.0000  0.0000  0.0000  0.0000  0.0000  0.0000  0.0000  0.0000  0.0000
  o =  0.9926  v =  0.0000  0.0000  0.0000 -1.0000  0.0000  0.0000  0.0000  0.0000  0.0000  0.0000      0.0000  0.0000  0.0000  0.0000  0.0000  0.0000  0.0000  0.0000  0.0000  0.0000
  o =  0.9926  v =  0.0000  0.0000  0.0000  0.0000  0.0000  1.0000  0.0000  0.0000  0.0000  0.0000      0.0000  0.0000  0.0000  0.0000  0.0000  0.0000  0.0000  0.0000  0.0000  0.0000
  o =  0.9926  v =  0.0000  0.0000  0.0000  0.0000  0.0000  0.0000  1.0000  0.0000  0.0000  0.0000      0.0000  0.0000  0.0000  0.0000  0.0000  0.0000  0.0000  0.0000  0.0000  0.0000
  o =  0.9926  v =  0.0000  0.0000  0.0000  0.0000  0.0000  0.0000  0.0000  1.0000  0.0000  0.0000      0.0000  0.0000  0.0000  0.0000  0.0000  0.0000  0.0000  0.0000  0.0000  0.0000
  o =  0.9926  v =  0.0000  0.0000  0.0000  0.0000  0.0000  0.0000  0.0000  0.0000  0.0000 -1.0000      0.0000  0.0000  0.0000  0.0000  0.0000  0.0000  0.0000  0.0000  0.0000  0.0000
  o =  0.9926  v =  0.0000  0.0000  0.0000  0.0000  0.0000  0.0000  0.0000  0.0000 -1.0000  0.0000      0.0000  0.0000  0.0000  0.0000  0.0000  0.0000  0.0000  0.0000  0.0000  0.0000
atom =  35  type =  2  l = 2
 
 onsite density matrix
 
spin component  1
 
  0.9926  0.0000  0.0000  0.0000  0.0000
  0.0000  0.9926  0.0000  0.0000  0.0000
  0.0000  0.0000  0.9926  0.0000  0.0000
  0.0000  0.0000  0.0000  0.9926  0.0000
  0.0000  0.0000  0.0000  0.0000  0.9926
 
spin component  2
 
  0.9926  0.0000  0.0000  0.0000  0.0000
  0.0000  0.9926  0.0000  0.0000  0.0000
  0.0000  0.0000  0.9926  0.0000  0.0000
  0.0000  0.0000  0.0000  0.9926  0.0000
  0.0000  0.0000  0.0000  0.0000  0.9926
 
 occupancies and eigenvectors
 
  o =  0.9926  v =  1.0000  0.0000  0.0000  0.0000  0.0000  0.0000  0.0000  0.0000  0.0000  0.0000      0.0000  0.0000  0.0000  0.0000  0.0000  0.0000  0.0000  0.0000  0.0000  0.0000
  o =  0.9926  v =  0.0000  1.0000  0.0000  0.0000  0.0000  0.0000  0.0000  0.0000  0.0000  0.0000      0.0000  0.0000  0.0000  0.0000  0.0000  0.0000  0.0000  0.0000  0.0000  0.0000
  o =  0.9926  v =  0.0000  0.0000  1.0000  0.0000  0.0000  0.0000  0.0000  0.0000  0.0000  0.0000      0.0000  0.0000  0.0000  0.0000  0.0000  0.0000  0.0000  0.0000  0.0000  0.0000
  o =  0.9926  v =  0.0000  0.0000  0.0000  0.0000 -1.0000  0.0000  0.0000  0.0000  0.0000  0.0000      0.0000  0.0000  0.0000  0.0000  0.0000  0.0000  0.0000  0.0000  0.0000  0.0000
  o =  0.9926  v =  0.0000  0.0000  0.0000 -1.0000  0.0000  0.0000  0.0000  0.0000  0.0000  0.0000      0.0000  0.0000  0.0000  0.0000  0.0000  0.0000  0.0000  0.0000  0.0000  0.0000
  o =  0.9926  v =  0.0000  0.0000  0.0000  0.0000  0.0000  1.0000  0.0000  0.0000  0.0000  0.0000      0.0000  0.0000  0.0000  0.0000  0.0000  0.0000  0.0000  0.0000  0.0000  0.0000
  o =  0.9926  v =  0.0000  0.0000  0.0000  0.0000  0.0000  0.0000  1.0000  0.0000  0.0000  0.0000      0.0000  0.0000  0.0000  0.0000  0.0000  0.0000  0.0000  0.0000  0.0000  0.0000
  o =  0.9926  v =  0.0000  0.0000  0.0000  0.0000  0.0000  0.0000  0.0000  1.0000  0.0000  0.0000      0.0000  0.0000  0.0000  0.0000  0.0000  0.0000  0.0000  0.0000  0.0000  0.0000
  o =  0.9926  v =  0.0000  0.0000  0.0000  0.0000  0.0000  0.0000  0.0000  0.0000  0.0000 -1.0000      0.0000  0.0000  0.0000  0.0000  0.0000  0.0000  0.0000  0.0000  0.0000  0.0000
  o =  0.9926  v =  0.0000  0.0000  0.0000  0.0000  0.0000  0.0000  0.0000  0.0000 -1.0000  0.0000      0.0000  0.0000  0.0000  0.0000  0.0000  0.0000  0.0000  0.0000  0.0000  0.0000
atom =  36  type =  2  l = 2
 
 onsite density matrix
 
spin component  1
 
  0.9926  0.0000  0.0000  0.0000  0.0000
  0.0000  0.9926  0.0000  0.0000  0.0000
  0.0000  0.0000  0.9926  0.0000  0.0000
  0.0000  0.0000  0.0000  0.9926  0.0000
  0.0000  0.0000  0.0000  0.0000  0.9926
 
spin component  2
 
  0.9926  0.0000  0.0000  0.0000  0.0000
  0.0000  0.9926  0.0000  0.0000  0.0000
  0.0000  0.0000  0.9926  0.0000  0.0000
  0.0000  0.0000  0.0000  0.9926  0.0000
  0.0000  0.0000  0.0000  0.0000  0.9926
 
 occupancies and eigenvectors
 
  o =  0.9926  v =  1.0000  0.0000  0.0000  0.0000  0.0000  0.0000  0.0000  0.0000  0.0000  0.0000      0.0000  0.0000  0.0000  0.0000  0.0000  0.0000  0.0000  0.0000  0.0000  0.0000
  o =  0.9926  v =  0.0000  1.0000  0.0000  0.0000  0.0000  0.0000  0.0000  0.0000  0.0000  0.0000      0.0000  0.0000  0.0000  0.0000  0.0000  0.0000  0.0000  0.0000  0.0000  0.0000
  o =  0.9926  v =  0.0000  0.0000  1.0000  0.0000  0.0000  0.0000  0.0000  0.0000  0.0000  0.0000      0.0000  0.0000  0.0000  0.0000  0.0000  0.0000  0.0000  0.0000  0.0000  0.0000
  o =  0.9926  v =  0.0000  0.0000  0.0000  0.0000 -1.0000  0.0000  0.0000  0.0000  0.0000  0.0000      0.0000  0.0000  0.0000  0.0000  0.0000  0.0000  0.0000  0.0000  0.0000  0.0000
  o =  0.9926  v =  0.0000  0.0000  0.0000 -1.0000  0.0000  0.0000  0.0000  0.0000  0.0000  0.0000      0.0000  0.0000  0.0000  0.0000  0.0000  0.0000  0.0000  0.0000  0.0000  0.0000
  o =  0.9926  v =  0.0000  0.0000  0.0000  0.0000  0.0000  1.0000  0.0000  0.0000  0.0000  0.0000      0.0000  0.0000  0.0000  0.0000  0.0000  0.0000  0.0000  0.0000  0.0000  0.0000
  o =  0.9926  v =  0.0000  0.0000  0.0000  0.0000  0.0000  0.0000  1.0000  0.0000  0.0000  0.0000      0.0000  0.0000  0.0000  0.0000  0.0000  0.0000  0.0000  0.0000  0.0000  0.0000
  o =  0.9926  v =  0.0000  0.0000  0.0000  0.0000  0.0000  0.0000  0.0000  1.0000  0.0000  0.0000      0.0000  0.0000  0.0000  0.0000  0.0000  0.0000  0.0000  0.0000  0.0000  0.0000
  o =  0.9926  v =  0.0000  0.0000  0.0000  0.0000  0.0000  0.0000  0.0000  0.0000  0.0000 -1.0000      0.0000  0.0000  0.0000  0.0000  0.0000  0.0000  0.0000  0.0000  0.0000  0.0000
  o =  0.9926  v =  0.0000  0.0000  0.0000  0.0000  0.0000  0.0000  0.0000  0.0000 -1.0000  0.0000      0.0000  0.0000  0.0000  0.0000  0.0000  0.0000  0.0000  0.0000  0.0000  0.0000
atom =  37  type =  2  l = 2
 
 onsite density matrix
 
spin component  1
 
  0.9926  0.0000  0.0000  0.0000  0.0000
  0.0000  0.9926  0.0000  0.0000  0.0000
  0.0000  0.0000  0.9926  0.0000  0.0000
  0.0000  0.0000  0.0000  0.9926  0.0000
  0.0000  0.0000  0.0000  0.0000  0.9926
 
spin component  2
 
  0.9926  0.0000  0.0000  0.0000  0.0000
  0.0000  0.9926  0.0000  0.0000  0.0000
  0.0000  0.0000  0.9926  0.0000  0.0000
  0.0000  0.0000  0.0000  0.9926  0.0000
  0.0000  0.0000  0.0000  0.0000  0.9926
 
 occupancies and eigenvectors
 
  o =  0.9926  v =  1.0000  0.0000  0.0000  0.0000  0.0000  0.0000  0.0000  0.0000  0.0000  0.0000      0.0000  0.0000  0.0000  0.0000  0.0000  0.0000  0.0000  0.0000  0.0000  0.0000
  o =  0.9926  v =  0.0000  1.0000  0.0000  0.0000  0.0000  0.0000  0.0000  0.0000  0.0000  0.0000      0.0000  0.0000  0.0000  0.0000  0.0000  0.0000  0.0000  0.0000  0.0000  0.0000
  o =  0.9926  v =  0.0000  0.0000  1.0000  0.0000  0.0000  0.0000  0.0000  0.0000  0.0000  0.0000      0.0000  0.0000  0.0000  0.0000  0.0000  0.0000  0.0000  0.0000  0.0000  0.0000
  o =  0.9926  v =  0.0000  0.0000  0.0000  0.0000 -1.0000  0.0000  0.0000  0.0000  0.0000  0.0000      0.0000  0.0000  0.0000  0.0000  0.0000  0.0000  0.0000  0.0000  0.0000  0.0000
  o =  0.9926  v =  0.0000  0.0000  0.0000 -1.0000  0.0000  0.0000  0.0000  0.0000  0.0000  0.0000      0.0000  0.0000  0.0000  0.0000  0.0000  0.0000  0.0000  0.0000  0.0000  0.0000
  o =  0.9926  v =  0.0000  0.0000  0.0000  0.0000  0.0000  1.0000  0.0000  0.0000  0.0000  0.0000      0.0000  0.0000  0.0000  0.0000  0.0000  0.0000  0.0000  0.0000  0.0000  0.0000
  o =  0.9926  v =  0.0000  0.0000  0.0000  0.0000  0.0000  0.0000  1.0000  0.0000  0.0000  0.0000      0.0000  0.0000  0.0000  0.0000  0.0000  0.0000  0.0000  0.0000  0.0000  0.0000
  o =  0.9926  v =  0.0000  0.0000  0.0000  0.0000  0.0000  0.0000  0.0000  1.0000  0.0000  0.0000      0.0000  0.0000  0.0000  0.0000  0.0000  0.0000  0.0000  0.0000  0.0000  0.0000
  o =  0.9926  v =  0.0000  0.0000  0.0000  0.0000  0.0000  0.0000  0.0000  0.0000  0.0000 -1.0000      0.0000  0.0000  0.0000  0.0000  0.0000  0.0000  0.0000  0.0000  0.0000  0.0000
  o =  0.9926  v =  0.0000  0.0000  0.0000  0.0000  0.0000  0.0000  0.0000  0.0000 -1.0000  0.0000      0.0000  0.0000  0.0000  0.0000  0.0000  0.0000  0.0000  0.0000  0.0000  0.0000
atom =  38  type =  2  l = 2
 
 onsite density matrix
 
spin component  1
 
  0.9926  0.0000  0.0000  0.0000  0.0000
  0.0000  0.9926  0.0000  0.0000  0.0000
  0.0000  0.0000  0.9926  0.0000  0.0000
  0.0000  0.0000  0.0000  0.9926  0.0000
  0.0000  0.0000  0.0000  0.0000  0.9926
 
spin component  2
 
  0.9926  0.0000  0.0000  0.0000  0.0000
  0.0000  0.9926  0.0000  0.0000  0.0000
  0.0000  0.0000  0.9926  0.0000  0.0000
  0.0000  0.0000  0.0000  0.9926  0.0000
  0.0000  0.0000  0.0000  0.0000  0.9926
 
 occupancies and eigenvectors
 
  o =  0.9926  v =  1.0000  0.0000  0.0000  0.0000  0.0000  0.0000  0.0000  0.0000  0.0000  0.0000      0.0000  0.0000  0.0000  0.0000  0.0000  0.0000  0.0000  0.0000  0.0000  0.0000
  o =  0.9926  v =  0.0000  1.0000  0.0000  0.0000  0.0000  0.0000  0.0000  0.0000  0.0000  0.0000      0.0000  0.0000  0.0000  0.0000  0.0000  0.0000  0.0000  0.0000  0.0000  0.0000
  o =  0.9926  v =  0.0000  0.0000  1.0000  0.0000  0.0000  0.0000  0.0000  0.0000  0.0000  0.0000      0.0000  0.0000  0.0000  0.0000  0.0000  0.0000  0.0000  0.0000  0.0000  0.0000
  o =  0.9926  v =  0.0000  0.0000  0.0000  0.0000 -1.0000  0.0000  0.0000  0.0000  0.0000  0.0000      0.0000  0.0000  0.0000  0.0000  0.0000  0.0000  0.0000  0.0000  0.0000  0.0000
  o =  0.9926  v =  0.0000  0.0000  0.0000 -1.0000  0.0000  0.0000  0.0000  0.0000  0.0000  0.0000      0.0000  0.0000  0.0000  0.0000  0.0000  0.0000  0.0000  0.0000  0.0000  0.0000
  o =  0.9926  v =  0.0000  0.0000  0.0000  0.0000  0.0000  1.0000  0.0000  0.0000  0.0000  0.0000      0.0000  0.0000  0.0000  0.0000  0.0000  0.0000  0.0000  0.0000  0.0000  0.0000
  o =  0.9926  v =  0.0000  0.0000  0.0000  0.0000  0.0000  0.0000  1.0000  0.0000  0.0000  0.0000      0.0000  0.0000  0.0000  0.0000  0.0000  0.0000  0.0000  0.0000  0.0000  0.0000
  o =  0.9926  v =  0.0000  0.0000  0.0000  0.0000  0.0000  0.0000  0.0000  1.0000  0.0000  0.0000      0.0000  0.0000  0.0000  0.0000  0.0000  0.0000  0.0000  0.0000  0.0000  0.0000
  o =  0.9926  v =  0.0000  0.0000  0.0000  0.0000  0.0000  0.0000  0.0000  0.0000  0.0000 -1.0000      0.0000  0.0000  0.0000  0.0000  0.0000  0.0000  0.0000  0.0000  0.0000  0.0000
  o =  0.9926  v =  0.0000  0.0000  0.0000  0.0000  0.0000  0.0000  0.0000  0.0000 -1.0000  0.0000      0.0000  0.0000  0.0000  0.0000  0.0000  0.0000  0.0000  0.0000  0.0000  0.0000
atom =  39  type =  2  l = 2
 
 onsite density matrix
 
spin component  1
 
  0.9926  0.0000  0.0000  0.0000  0.0000
  0.0000  0.9926  0.0000  0.0000  0.0000
  0.0000  0.0000  0.9926  0.0000  0.0000
  0.0000  0.0000  0.0000  0.9926  0.0000
  0.0000  0.0000  0.0000  0.0000  0.9926
 
spin component  2
 
  0.9926  0.0000  0.0000  0.0000  0.0000
  0.0000  0.9926  0.0000  0.0000  0.0000
  0.0000  0.0000  0.9926  0.0000  0.0000
  0.0000  0.0000  0.0000  0.9926  0.0000
  0.0000  0.0000  0.0000  0.0000  0.9926
 
 occupancies and eigenvectors
 
  o =  0.9926  v =  1.0000  0.0000  0.0000  0.0000  0.0000  0.0000  0.0000  0.0000  0.0000  0.0000      0.0000  0.0000  0.0000  0.0000  0.0000  0.0000  0.0000  0.0000  0.0000  0.0000
  o =  0.9926  v =  0.0000  1.0000  0.0000  0.0000  0.0000  0.0000  0.0000  0.0000  0.0000  0.0000      0.0000  0.0000  0.0000  0.0000  0.0000  0.0000  0.0000  0.0000  0.0000  0.0000
  o =  0.9926  v =  0.0000  0.0000  1.0000  0.0000  0.0000  0.0000  0.0000  0.0000  0.0000  0.0000      0.0000  0.0000  0.0000  0.0000  0.0000  0.0000  0.0000  0.0000  0.0000  0.0000
  o =  0.9926  v =  0.0000  0.0000  0.0000  0.0000 -1.0000  0.0000  0.0000  0.0000  0.0000  0.0000      0.0000  0.0000  0.0000  0.0000  0.0000  0.0000  0.0000  0.0000  0.0000  0.0000
  o =  0.9926  v =  0.0000  0.0000  0.0000 -1.0000  0.0000  0.0000  0.0000  0.0000  0.0000  0.0000      0.0000  0.0000  0.0000  0.0000  0.0000  0.0000  0.0000  0.0000  0.0000  0.0000
  o =  0.9926  v =  0.0000  0.0000  0.0000  0.0000  0.0000  1.0000  0.0000  0.0000  0.0000  0.0000      0.0000  0.0000  0.0000  0.0000  0.0000  0.0000  0.0000  0.0000  0.0000  0.0000
  o =  0.9926  v =  0.0000  0.0000  0.0000  0.0000  0.0000  0.0000  1.0000  0.0000  0.0000  0.0000      0.0000  0.0000  0.0000  0.0000  0.0000  0.0000  0.0000  0.0000  0.0000  0.0000
  o =  0.9926  v =  0.0000  0.0000  0.0000  0.0000  0.0000  0.0000  0.0000  1.0000  0.0000  0.0000      0.0000  0.0000  0.0000  0.0000  0.0000  0.0000  0.0000  0.0000  0.0000  0.0000
  o =  0.9926  v =  0.0000  0.0000  0.0000  0.0000  0.0000  0.0000  0.0000  0.0000  0.0000 -1.0000      0.0000  0.0000  0.0000  0.0000  0.0000  0.0000  0.0000  0.0000  0.0000  0.0000
  o =  0.9926  v =  0.0000  0.0000  0.0000  0.0000  0.0000  0.0000  0.0000  0.0000 -1.0000  0.0000      0.0000  0.0000  0.0000  0.0000  0.0000  0.0000  0.0000  0.0000  0.0000  0.0000
atom =  40  type =  2  l = 2
 
 onsite density matrix
 
spin component  1
 
  0.9926  0.0000  0.0000  0.0000  0.0000
  0.0000  0.9926  0.0000  0.0000  0.0000
  0.0000  0.0000  0.9926  0.0000  0.0000
  0.0000  0.0000  0.0000  0.9926  0.0000
  0.0000  0.0000  0.0000  0.0000  0.9926
 
spin component  2
 
  0.9926  0.0000  0.0000  0.0000  0.0000
  0.0000  0.9926  0.0000  0.0000  0.0000
  0.0000  0.0000  0.9926  0.0000  0.0000
  0.0000  0.0000  0.0000  0.9926  0.0000
  0.0000  0.0000  0.0000  0.0000  0.9926
 
 occupancies and eigenvectors
 
  o =  0.9926  v =  1.0000  0.0000  0.0000  0.0000  0.0000  0.0000  0.0000  0.0000  0.0000  0.0000      0.0000  0.0000  0.0000  0.0000  0.0000  0.0000  0.0000  0.0000  0.0000  0.0000
  o =  0.9926  v =  0.0000  1.0000  0.0000  0.0000  0.0000  0.0000  0.0000  0.0000  0.0000  0.0000      0.0000  0.0000  0.0000  0.0000  0.0000  0.0000  0.0000  0.0000  0.0000  0.0000
  o =  0.9926  v =  0.0000  0.0000  1.0000  0.0000  0.0000  0.0000  0.0000  0.0000  0.0000  0.0000      0.0000  0.0000  0.0000  0.0000  0.0000  0.0000  0.0000  0.0000  0.0000  0.0000
  o =  0.9926  v =  0.0000  0.0000  0.0000  0.0000 -1.0000  0.0000  0.0000  0.0000  0.0000  0.0000      0.0000  0.0000  0.0000  0.0000  0.0000  0.0000  0.0000  0.0000  0.0000  0.0000
  o =  0.9926  v =  0.0000  0.0000  0.0000 -1.0000  0.0000  0.0000  0.0000  0.0000  0.0000  0.0000      0.0000  0.0000  0.0000  0.0000  0.0000  0.0000  0.0000  0.0000  0.0000  0.0000
  o =  0.9926  v =  0.0000  0.0000  0.0000  0.0000  0.0000  1.0000  0.0000  0.0000  0.0000  0.0000      0.0000  0.0000  0.0000  0.0000  0.0000  0.0000  0.0000  0.0000  0.0000  0.0000
  o =  0.9926  v =  0.0000  0.0000  0.0000  0.0000  0.0000  0.0000  1.0000  0.0000  0.0000  0.0000      0.0000  0.0000  0.0000  0.0000  0.0000  0.0000  0.0000  0.0000  0.0000  0.0000
  o =  0.9926  v =  0.0000  0.0000  0.0000  0.0000  0.0000  0.0000  0.0000  1.0000  0.0000  0.0000      0.0000  0.0000  0.0000  0.0000  0.0000  0.0000  0.0000  0.0000  0.0000  0.0000
  o =  0.9926  v =  0.0000  0.0000  0.0000  0.0000  0.0000  0.0000  0.0000  0.0000  0.0000 -1.0000      0.0000  0.0000  0.0000  0.0000  0.0000  0.0000  0.0000  0.0000  0.0000  0.0000
  o =  0.9926  v =  0.0000  0.0000  0.0000  0.0000  0.0000  0.0000  0.0000  0.0000 -1.0000  0.0000      0.0000  0.0000  0.0000  0.0000  0.0000  0.0000  0.0000  0.0000  0.0000  0.0000
atom =  41  type =  2  l = 2
 
 onsite density matrix
 
spin component  1
 
  0.9926  0.0000  0.0000  0.0000  0.0000
  0.0000  0.9926  0.0000  0.0000  0.0000
  0.0000  0.0000  0.9926  0.0000  0.0000
  0.0000  0.0000  0.0000  0.9926  0.0000
  0.0000  0.0000  0.0000  0.0000  0.9926
 
spin component  2
 
  0.9926  0.0000  0.0000  0.0000  0.0000
  0.0000  0.9926  0.0000  0.0000  0.0000
  0.0000  0.0000  0.9926  0.0000  0.0000
  0.0000  0.0000  0.0000  0.9926  0.0000
  0.0000  0.0000  0.0000  0.0000  0.9926
 
 occupancies and eigenvectors
 
  o =  0.9926  v =  1.0000  0.0000  0.0000  0.0000  0.0000  0.0000  0.0000  0.0000  0.0000  0.0000      0.0000  0.0000  0.0000  0.0000  0.0000  0.0000  0.0000  0.0000  0.0000  0.0000
  o =  0.9926  v =  0.0000  1.0000  0.0000  0.0000  0.0000  0.0000  0.0000  0.0000  0.0000  0.0000      0.0000  0.0000  0.0000  0.0000  0.0000  0.0000  0.0000  0.0000  0.0000  0.0000
  o =  0.9926  v =  0.0000  0.0000  1.0000  0.0000  0.0000  0.0000  0.0000  0.0000  0.0000  0.0000      0.0000  0.0000  0.0000  0.0000  0.0000  0.0000  0.0000  0.0000  0.0000  0.0000
  o =  0.9926  v =  0.0000  0.0000  0.0000  0.0000 -1.0000  0.0000  0.0000  0.0000  0.0000  0.0000      0.0000  0.0000  0.0000  0.0000  0.0000  0.0000  0.0000  0.0000  0.0000  0.0000
  o =  0.9926  v =  0.0000  0.0000  0.0000 -1.0000  0.0000  0.0000  0.0000  0.0000  0.0000  0.0000      0.0000  0.0000  0.0000  0.0000  0.0000  0.0000  0.0000  0.0000  0.0000  0.0000
  o =  0.9926  v =  0.0000  0.0000  0.0000  0.0000  0.0000  1.0000  0.0000  0.0000  0.0000  0.0000      0.0000  0.0000  0.0000  0.0000  0.0000  0.0000  0.0000  0.0000  0.0000  0.0000
  o =  0.9926  v =  0.0000  0.0000  0.0000  0.0000  0.0000  0.0000  1.0000  0.0000  0.0000  0.0000      0.0000  0.0000  0.0000  0.0000  0.0000  0.0000  0.0000  0.0000  0.0000  0.0000
  o =  0.9926  v =  0.0000  0.0000  0.0000  0.0000  0.0000  0.0000  0.0000  1.0000  0.0000  0.0000      0.0000  0.0000  0.0000  0.0000  0.0000  0.0000  0.0000  0.0000  0.0000  0.0000
  o =  0.9926  v =  0.0000  0.0000  0.0000  0.0000  0.0000  0.0000  0.0000  0.0000  0.0000 -1.0000      0.0000  0.0000  0.0000  0.0000  0.0000  0.0000  0.0000  0.0000  0.0000  0.0000
  o =  0.9926  v =  0.0000  0.0000  0.0000  0.0000  0.0000  0.0000  0.0000  0.0000 -1.0000  0.0000      0.0000  0.0000  0.0000  0.0000  0.0000  0.0000  0.0000  0.0000  0.0000  0.0000
atom =  42  type =  2  l = 2
 
 onsite density matrix
 
spin component  1
 
  0.9926  0.0000  0.0000  0.0000  0.0000
  0.0000  0.9926  0.0000  0.0000  0.0000
  0.0000  0.0000  0.9926  0.0000  0.0000
  0.0000  0.0000  0.0000  0.9926  0.0000
  0.0000  0.0000  0.0000  0.0000  0.9926
 
spin component  2
 
  0.9926  0.0000  0.0000  0.0000  0.0000
  0.0000  0.9926  0.0000  0.0000  0.0000
  0.0000  0.0000  0.9926  0.0000  0.0000
  0.0000  0.0000  0.0000  0.9926  0.0000
  0.0000  0.0000  0.0000  0.0000  0.9926
 
 occupancies and eigenvectors
 
  o =  0.9926  v =  1.0000  0.0000  0.0000  0.0000  0.0000  0.0000  0.0000  0.0000  0.0000  0.0000      0.0000  0.0000  0.0000  0.0000  0.0000  0.0000  0.0000  0.0000  0.0000  0.0000
  o =  0.9926  v =  0.0000  1.0000  0.0000  0.0000  0.0000  0.0000  0.0000  0.0000  0.0000  0.0000      0.0000  0.0000  0.0000  0.0000  0.0000  0.0000  0.0000  0.0000  0.0000  0.0000
  o =  0.9926  v =  0.0000  0.0000  1.0000  0.0000  0.0000  0.0000  0.0000  0.0000  0.0000  0.0000      0.0000  0.0000  0.0000  0.0000  0.0000  0.0000  0.0000  0.0000  0.0000  0.0000
  o =  0.9926  v =  0.0000  0.0000  0.0000  0.0000 -1.0000  0.0000  0.0000  0.0000  0.0000  0.0000      0.0000  0.0000  0.0000  0.0000  0.0000  0.0000  0.0000  0.0000  0.0000  0.0000
  o =  0.9926  v =  0.0000  0.0000  0.0000 -1.0000  0.0000  0.0000  0.0000  0.0000  0.0000  0.0000      0.0000  0.0000  0.0000  0.0000  0.0000  0.0000  0.0000  0.0000  0.0000  0.0000
  o =  0.9926  v =  0.0000  0.0000  0.0000  0.0000  0.0000  1.0000  0.0000  0.0000  0.0000  0.0000      0.0000  0.0000  0.0000  0.0000  0.0000  0.0000  0.0000  0.0000  0.0000  0.0000
  o =  0.9926  v =  0.0000  0.0000  0.0000  0.0000  0.0000  0.0000  1.0000  0.0000  0.0000  0.0000      0.0000  0.0000  0.0000  0.0000  0.0000  0.0000  0.0000  0.0000  0.0000  0.0000
  o =  0.9926  v =  0.0000  0.0000  0.0000  0.0000  0.0000  0.0000  0.0000  1.0000  0.0000  0.0000      0.0000  0.0000  0.0000  0.0000  0.0000  0.0000  0.0000  0.0000  0.0000  0.0000
  o =  0.9926  v =  0.0000  0.0000  0.0000  0.0000  0.0000  0.0000  0.0000  0.0000  0.0000 -1.0000      0.0000  0.0000  0.0000  0.0000  0.0000  0.0000  0.0000  0.0000  0.0000  0.0000
  o =  0.9926  v =  0.0000  0.0000  0.0000  0.0000  0.0000  0.0000  0.0000  0.0000 -1.0000  0.0000      0.0000  0.0000  0.0000  0.0000  0.0000  0.0000  0.0000  0.0000  0.0000  0.0000
atom =  43  type =  2  l = 2
 
 onsite density matrix
 
spin component  1
 
  0.9926  0.0000  0.0000  0.0000  0.0000
  0.0000  0.9926  0.0000  0.0000  0.0000
  0.0000  0.0000  0.9926  0.0000  0.0000
  0.0000  0.0000  0.0000  0.9926  0.0000
  0.0000  0.0000  0.0000  0.0000  0.9926
 
spin component  2
 
  0.9926  0.0000  0.0000  0.0000  0.0000
  0.0000  0.9926  0.0000  0.0000  0.0000
  0.0000  0.0000  0.9926  0.0000  0.0000
  0.0000  0.0000  0.0000  0.9926  0.0000
  0.0000  0.0000  0.0000  0.0000  0.9926
 
 occupancies and eigenvectors
 
  o =  0.9926  v =  1.0000  0.0000  0.0000  0.0000  0.0000  0.0000  0.0000  0.0000  0.0000  0.0000      0.0000  0.0000  0.0000  0.0000  0.0000  0.0000  0.0000  0.0000  0.0000  0.0000
  o =  0.9926  v =  0.0000  1.0000  0.0000  0.0000  0.0000  0.0000  0.0000  0.0000  0.0000  0.0000      0.0000  0.0000  0.0000  0.0000  0.0000  0.0000  0.0000  0.0000  0.0000  0.0000
  o =  0.9926  v =  0.0000  0.0000  1.0000  0.0000  0.0000  0.0000  0.0000  0.0000  0.0000  0.0000      0.0000  0.0000  0.0000  0.0000  0.0000  0.0000  0.0000  0.0000  0.0000  0.0000
  o =  0.9926  v =  0.0000  0.0000  0.0000  0.0000 -1.0000  0.0000  0.0000  0.0000  0.0000  0.0000      0.0000  0.0000  0.0000  0.0000  0.0000  0.0000  0.0000  0.0000  0.0000  0.0000
  o =  0.9926  v =  0.0000  0.0000  0.0000 -1.0000  0.0000  0.0000  0.0000  0.0000  0.0000  0.0000      0.0000  0.0000  0.0000  0.0000  0.0000  0.0000  0.0000  0.0000  0.0000  0.0000
  o =  0.9926  v =  0.0000  0.0000  0.0000  0.0000  0.0000  1.0000  0.0000  0.0000  0.0000  0.0000      0.0000  0.0000  0.0000  0.0000  0.0000  0.0000  0.0000  0.0000  0.0000  0.0000
  o =  0.9926  v =  0.0000  0.0000  0.0000  0.0000  0.0000  0.0000  1.0000  0.0000  0.0000  0.0000      0.0000  0.0000  0.0000  0.0000  0.0000  0.0000  0.0000  0.0000  0.0000  0.0000
  o =  0.9926  v =  0.0000  0.0000  0.0000  0.0000  0.0000  0.0000  0.0000  1.0000  0.0000  0.0000      0.0000  0.0000  0.0000  0.0000  0.0000  0.0000  0.0000  0.0000  0.0000  0.0000
  o =  0.9926  v =  0.0000  0.0000  0.0000  0.0000  0.0000  0.0000  0.0000  0.0000  0.0000 -1.0000      0.0000  0.0000  0.0000  0.0000  0.0000  0.0000  0.0000  0.0000  0.0000  0.0000
  o =  0.9926  v =  0.0000  0.0000  0.0000  0.0000  0.0000  0.0000  0.0000  0.0000 -1.0000  0.0000      0.0000  0.0000  0.0000  0.0000  0.0000  0.0000  0.0000  0.0000  0.0000  0.0000
atom =  44  type =  2  l = 2
 
 onsite density matrix
 
spin component  1
 
  0.9926  0.0000  0.0000  0.0000  0.0000
  0.0000  0.9926  0.0000  0.0000  0.0000
  0.0000  0.0000  0.9926  0.0000  0.0000
  0.0000  0.0000  0.0000  0.9926  0.0000
  0.0000  0.0000  0.0000  0.0000  0.9926
 
spin component  2
 
  0.9926  0.0000  0.0000  0.0000  0.0000
  0.0000  0.9926  0.0000  0.0000  0.0000
  0.0000  0.0000  0.9926  0.0000  0.0000
  0.0000  0.0000  0.0000  0.9926  0.0000
  0.0000  0.0000  0.0000  0.0000  0.9926
 
 occupancies and eigenvectors
 
  o =  0.9926  v =  1.0000  0.0000  0.0000  0.0000  0.0000  0.0000  0.0000  0.0000  0.0000  0.0000      0.0000  0.0000  0.0000  0.0000  0.0000  0.0000  0.0000  0.0000  0.0000  0.0000
  o =  0.9926  v =  0.0000  1.0000  0.0000  0.0000  0.0000  0.0000  0.0000  0.0000  0.0000  0.0000      0.0000  0.0000  0.0000  0.0000  0.0000  0.0000  0.0000  0.0000  0.0000  0.0000
  o =  0.9926  v =  0.0000  0.0000  1.0000  0.0000  0.0000  0.0000  0.0000  0.0000  0.0000  0.0000      0.0000  0.0000  0.0000  0.0000  0.0000  0.0000  0.0000  0.0000  0.0000  0.0000
  o =  0.9926  v =  0.0000  0.0000  0.0000  0.0000 -1.0000  0.0000  0.0000  0.0000  0.0000  0.0000      0.0000  0.0000  0.0000  0.0000  0.0000  0.0000  0.0000  0.0000  0.0000  0.0000
  o =  0.9926  v =  0.0000  0.0000  0.0000 -1.0000  0.0000  0.0000  0.0000  0.0000  0.0000  0.0000      0.0000  0.0000  0.0000  0.0000  0.0000  0.0000  0.0000  0.0000  0.0000  0.0000
  o =  0.9926  v =  0.0000  0.0000  0.0000  0.0000  0.0000  1.0000  0.0000  0.0000  0.0000  0.0000      0.0000  0.0000  0.0000  0.0000  0.0000  0.0000  0.0000  0.0000  0.0000  0.0000
  o =  0.9926  v =  0.0000  0.0000  0.0000  0.0000  0.0000  0.0000  1.0000  0.0000  0.0000  0.0000      0.0000  0.0000  0.0000  0.0000  0.0000  0.0000  0.0000  0.0000  0.0000  0.0000
  o =  0.9926  v =  0.0000  0.0000  0.0000  0.0000  0.0000  0.0000  0.0000  1.0000  0.0000  0.0000      0.0000  0.0000  0.0000  0.0000  0.0000  0.0000  0.0000  0.0000  0.0000  0.0000
  o =  0.9926  v =  0.0000  0.0000  0.0000  0.0000  0.0000  0.0000  0.0000  0.0000  0.0000 -1.0000      0.0000  0.0000  0.0000  0.0000  0.0000  0.0000  0.0000  0.0000  0.0000  0.0000
  o =  0.9926  v =  0.0000  0.0000  0.0000  0.0000  0.0000  0.0000  0.0000  0.0000 -1.0000  0.0000      0.0000  0.0000  0.0000  0.0000  0.0000  0.0000  0.0000  0.0000  0.0000  0.0000
atom =  45  type =  2  l = 2
 
 onsite density matrix
 
spin component  1
 
  0.9926  0.0000  0.0000  0.0000  0.0000
  0.0000  0.9926  0.0000  0.0000  0.0000
  0.0000  0.0000  0.9926  0.0000  0.0000
  0.0000  0.0000  0.0000  0.9926  0.0000
  0.0000  0.0000  0.0000  0.0000  0.9926
 
spin component  2
 
  0.9926  0.0000  0.0000  0.0000  0.0000
  0.0000  0.9926  0.0000  0.0000  0.0000
  0.0000  0.0000  0.9926  0.0000  0.0000
  0.0000  0.0000  0.0000  0.9926  0.0000
  0.0000  0.0000  0.0000  0.0000  0.9926
 
 occupancies and eigenvectors
 
  o =  0.9926  v =  1.0000  0.0000  0.0000  0.0000  0.0000  0.0000  0.0000  0.0000  0.0000  0.0000      0.0000  0.0000  0.0000  0.0000  0.0000  0.0000  0.0000  0.0000  0.0000  0.0000
  o =  0.9926  v =  0.0000  1.0000  0.0000  0.0000  0.0000  0.0000  0.0000  0.0000  0.0000  0.0000      0.0000  0.0000  0.0000  0.0000  0.0000  0.0000  0.0000  0.0000  0.0000  0.0000
  o =  0.9926  v =  0.0000  0.0000  1.0000  0.0000  0.0000  0.0000  0.0000  0.0000  0.0000  0.0000      0.0000  0.0000  0.0000  0.0000  0.0000  0.0000  0.0000  0.0000  0.0000  0.0000
  o =  0.9926  v =  0.0000  0.0000  0.0000  0.0000 -1.0000  0.0000  0.0000  0.0000  0.0000  0.0000      0.0000  0.0000  0.0000  0.0000  0.0000  0.0000  0.0000  0.0000  0.0000  0.0000
  o =  0.9926  v =  0.0000  0.0000  0.0000 -1.0000  0.0000  0.0000  0.0000  0.0000  0.0000  0.0000      0.0000  0.0000  0.0000  0.0000  0.0000  0.0000  0.0000  0.0000  0.0000  0.0000
  o =  0.9926  v =  0.0000  0.0000  0.0000  0.0000  0.0000  1.0000  0.0000  0.0000  0.0000  0.0000      0.0000  0.0000  0.0000  0.0000  0.0000  0.0000  0.0000  0.0000  0.0000  0.0000
  o =  0.9926  v =  0.0000  0.0000  0.0000  0.0000  0.0000  0.0000  1.0000  0.0000  0.0000  0.0000      0.0000  0.0000  0.0000  0.0000  0.0000  0.0000  0.0000  0.0000  0.0000  0.0000
  o =  0.9926  v =  0.0000  0.0000  0.0000  0.0000  0.0000  0.0000  0.0000  1.0000  0.0000  0.0000      0.0000  0.0000  0.0000  0.0000  0.0000  0.0000  0.0000  0.0000  0.0000  0.0000
  o =  0.9926  v =  0.0000  0.0000  0.0000  0.0000  0.0000  0.0000  0.0000  0.0000  0.0000 -1.0000      0.0000  0.0000  0.0000  0.0000  0.0000  0.0000  0.0000  0.0000  0.0000  0.0000
  o =  0.9926  v =  0.0000  0.0000  0.0000  0.0000  0.0000  0.0000  0.0000  0.0000 -1.0000  0.0000      0.0000  0.0000  0.0000  0.0000  0.0000  0.0000  0.0000  0.0000  0.0000  0.0000
atom =  46  type =  2  l = 2
 
 onsite density matrix
 
spin component  1
 
  0.9926  0.0000  0.0000  0.0000  0.0000
  0.0000  0.9926  0.0000  0.0000  0.0000
  0.0000  0.0000  0.9926  0.0000  0.0000
  0.0000  0.0000  0.0000  0.9926  0.0000
  0.0000  0.0000  0.0000  0.0000  0.9926
 
spin component  2
 
  0.9926  0.0000  0.0000  0.0000  0.0000
  0.0000  0.9926  0.0000  0.0000  0.0000
  0.0000  0.0000  0.9926  0.0000  0.0000
  0.0000  0.0000  0.0000  0.9926  0.0000
  0.0000  0.0000  0.0000  0.0000  0.9926
 
 occupancies and eigenvectors
 
  o =  0.9926  v =  1.0000  0.0000  0.0000  0.0000  0.0000  0.0000  0.0000  0.0000  0.0000  0.0000      0.0000  0.0000  0.0000  0.0000  0.0000  0.0000  0.0000  0.0000  0.0000  0.0000
  o =  0.9926  v =  0.0000  1.0000  0.0000  0.0000  0.0000  0.0000  0.0000  0.0000  0.0000  0.0000      0.0000  0.0000  0.0000  0.0000  0.0000  0.0000  0.0000  0.0000  0.0000  0.0000
  o =  0.9926  v =  0.0000  0.0000  1.0000  0.0000  0.0000  0.0000  0.0000  0.0000  0.0000  0.0000      0.0000  0.0000  0.0000  0.0000  0.0000  0.0000  0.0000  0.0000  0.0000  0.0000
  o =  0.9926  v =  0.0000  0.0000  0.0000  0.0000 -1.0000  0.0000  0.0000  0.0000  0.0000  0.0000      0.0000  0.0000  0.0000  0.0000  0.0000  0.0000  0.0000  0.0000  0.0000  0.0000
  o =  0.9926  v =  0.0000  0.0000  0.0000 -1.0000  0.0000  0.0000  0.0000  0.0000  0.0000  0.0000      0.0000  0.0000  0.0000  0.0000  0.0000  0.0000  0.0000  0.0000  0.0000  0.0000
  o =  0.9926  v =  0.0000  0.0000  0.0000  0.0000  0.0000  1.0000  0.0000  0.0000  0.0000  0.0000      0.0000  0.0000  0.0000  0.0000  0.0000  0.0000  0.0000  0.0000  0.0000  0.0000
  o =  0.9926  v =  0.0000  0.0000  0.0000  0.0000  0.0000  0.0000  1.0000  0.0000  0.0000  0.0000      0.0000  0.0000  0.0000  0.0000  0.0000  0.0000  0.0000  0.0000  0.0000  0.0000
  o =  0.9926  v =  0.0000  0.0000  0.0000  0.0000  0.0000  0.0000  0.0000  1.0000  0.0000  0.0000      0.0000  0.0000  0.0000  0.0000  0.0000  0.0000  0.0000  0.0000  0.0000  0.0000
  o =  0.9926  v =  0.0000  0.0000  0.0000  0.0000  0.0000  0.0000  0.0000  0.0000  0.0000 -1.0000      0.0000  0.0000  0.0000  0.0000  0.0000  0.0000  0.0000  0.0000  0.0000  0.0000
  o =  0.9926  v =  0.0000  0.0000  0.0000  0.0000  0.0000  0.0000  0.0000  0.0000 -1.0000  0.0000      0.0000  0.0000  0.0000  0.0000  0.0000  0.0000  0.0000  0.0000  0.0000  0.0000
atom =  47  type =  2  l = 2
 
 onsite density matrix
 
spin component  1
 
  0.9926  0.0000  0.0000  0.0000  0.0000
  0.0000  0.9926  0.0000  0.0000  0.0000
  0.0000  0.0000  0.9926  0.0000  0.0000
  0.0000  0.0000  0.0000  0.9926  0.0000
  0.0000  0.0000  0.0000  0.0000  0.9926
 
spin component  2
 
  0.9926  0.0000  0.0000  0.0000  0.0000
  0.0000  0.9926  0.0000  0.0000  0.0000
  0.0000  0.0000  0.9926  0.0000  0.0000
  0.0000  0.0000  0.0000  0.9926  0.0000
  0.0000  0.0000  0.0000  0.0000  0.9926
 
 occupancies and eigenvectors
 
  o =  0.9926  v =  1.0000  0.0000  0.0000  0.0000  0.0000  0.0000  0.0000  0.0000  0.0000  0.0000      0.0000  0.0000  0.0000  0.0000  0.0000  0.0000  0.0000  0.0000  0.0000  0.0000
  o =  0.9926  v =  0.0000  1.0000  0.0000  0.0000  0.0000  0.0000  0.0000  0.0000  0.0000  0.0000      0.0000  0.0000  0.0000  0.0000  0.0000  0.0000  0.0000  0.0000  0.0000  0.0000
  o =  0.9926  v =  0.0000  0.0000  1.0000  0.0000  0.0000  0.0000  0.0000  0.0000  0.0000  0.0000      0.0000  0.0000  0.0000  0.0000  0.0000  0.0000  0.0000  0.0000  0.0000  0.0000
  o =  0.9926  v =  0.0000  0.0000  0.0000  0.0000 -1.0000  0.0000  0.0000  0.0000  0.0000  0.0000      0.0000  0.0000  0.0000  0.0000  0.0000  0.0000  0.0000  0.0000  0.0000  0.0000
  o =  0.9926  v =  0.0000  0.0000  0.0000 -1.0000  0.0000  0.0000  0.0000  0.0000  0.0000  0.0000      0.0000  0.0000  0.0000  0.0000  0.0000  0.0000  0.0000  0.0000  0.0000  0.0000
  o =  0.9926  v =  0.0000  0.0000  0.0000  0.0000  0.0000  1.0000  0.0000  0.0000  0.0000  0.0000      0.0000  0.0000  0.0000  0.0000  0.0000  0.0000  0.0000  0.0000  0.0000  0.0000
  o =  0.9926  v =  0.0000  0.0000  0.0000  0.0000  0.0000  0.0000  1.0000  0.0000  0.0000  0.0000      0.0000  0.0000  0.0000  0.0000  0.0000  0.0000  0.0000  0.0000  0.0000  0.0000
  o =  0.9926  v =  0.0000  0.0000  0.0000  0.0000  0.0000  0.0000  0.0000  1.0000  0.0000  0.0000      0.0000  0.0000  0.0000  0.0000  0.0000  0.0000  0.0000  0.0000  0.0000  0.0000
  o =  0.9926  v =  0.0000  0.0000  0.0000  0.0000  0.0000  0.0000  0.0000  0.0000  0.0000 -1.0000      0.0000  0.0000  0.0000  0.0000  0.0000  0.0000  0.0000  0.0000  0.0000  0.0000
  o =  0.9926  v =  0.0000  0.0000  0.0000  0.0000  0.0000  0.0000  0.0000  0.0000 -1.0000  0.0000      0.0000  0.0000  0.0000  0.0000  0.0000  0.0000  0.0000  0.0000  0.0000  0.0000
atom =  48  type =  2  l = 2
 
 onsite density matrix
 
spin component  1
 
  0.9926  0.0000  0.0000  0.0000  0.0000
  0.0000  0.9926  0.0000  0.0000  0.0000
  0.0000  0.0000  0.9926  0.0000  0.0000
  0.0000  0.0000  0.0000  0.9926  0.0000
  0.0000  0.0000  0.0000  0.0000  0.9926
 
spin component  2
 
  0.9926  0.0000  0.0000  0.0000  0.0000
  0.0000  0.9926  0.0000  0.0000  0.0000
  0.0000  0.0000  0.9926  0.0000  0.0000
  0.0000  0.0000  0.0000  0.9926  0.0000
  0.0000  0.0000  0.0000  0.0000  0.9926
 
 occupancies and eigenvectors
 
  o =  0.9926  v =  1.0000  0.0000  0.0000  0.0000  0.0000  0.0000  0.0000  0.0000  0.0000  0.0000      0.0000  0.0000  0.0000  0.0000  0.0000  0.0000  0.0000  0.0000  0.0000  0.0000
  o =  0.9926  v =  0.0000  1.0000  0.0000  0.0000  0.0000  0.0000  0.0000  0.0000  0.0000  0.0000      0.0000  0.0000  0.0000  0.0000  0.0000  0.0000  0.0000  0.0000  0.0000  0.0000
  o =  0.9926  v =  0.0000  0.0000  1.0000  0.0000  0.0000  0.0000  0.0000  0.0000  0.0000  0.0000      0.0000  0.0000  0.0000  0.0000  0.0000  0.0000  0.0000  0.0000  0.0000  0.0000
  o =  0.9926  v =  0.0000  0.0000  0.0000  0.0000 -1.0000  0.0000  0.0000  0.0000  0.0000  0.0000      0.0000  0.0000  0.0000  0.0000  0.0000  0.0000  0.0000  0.0000  0.0000  0.0000
  o =  0.9926  v =  0.0000  0.0000  0.0000 -1.0000  0.0000  0.0000  0.0000  0.0000  0.0000  0.0000      0.0000  0.0000  0.0000  0.0000  0.0000  0.0000  0.0000  0.0000  0.0000  0.0000
  o =  0.9926  v =  0.0000  0.0000  0.0000  0.0000  0.0000  1.0000  0.0000  0.0000  0.0000  0.0000      0.0000  0.0000  0.0000  0.0000  0.0000  0.0000  0.0000  0.0000  0.0000  0.0000
[...]
    181       4.6839      2.00000
    182       4.7013      2.00000
    183       4.7451      2.00000
    184       4.8020      2.00000
    185       4.8833      2.00000
    186       4.9302      2.00000
    187       5.0034      2.00000
    188       5.0477      2.00000
    189       5.0495      2.00000
    190       5.1483      2.00000
    191       5.1748      2.00000
    192       5.2022      2.00000
    193       5.2151      2.00000
    194       5.2175      2.00000
    195       5.3205      2.00000
    196       5.3302      2.00000
    197       5.3406      2.00000
    198       5.4041      2.00000
    199       5.4283      2.00000
    200       5.4521      2.00000
    201       5.5451      2.00000
    202       5.6072      2.00000
    203       5.6311      2.00000
    204       5.6398      2.00000
    205       5.7178      2.00000
    206       5.7535      2.00000
    207       5.8156      2.00000
    208       5.9512      2.00000
    209       9.9997      0.00000
    210      10.7150      0.00000
    211      10.8749      0.00000
    212      11.0119      0.00000
    213      11.1710      0.00000
    214      11.5511      0.00000
    215      11.7240      0.00000
    216      11.7361      0.00000
    217      12.0666      0.00000
    218      12.2591      0.00000
    219      12.3554      0.00000
    220      12.5514      0.00000
    221      12.6806      0.00000
    222      12.9331      0.00000
    223      12.9461      0.00000
    224      13.3345      0.00000
    225      13.6988      0.00000
    226      14.5791      0.00000
    227      14.6751      0.00000
    228      14.7427      0.00000
    229      14.7572      0.00000
    230      14.8179      0.00000
    231      14.8851      0.00000
    232      15.0055      0.00000
    233      15.1343      0.00000
    234      15.2337      0.00000
    235      15.3633      0.00000
    236      15.4659      0.00000
    237      15.6322      0.00000
    238      15.7133      0.00000
    239      15.8106      0.00000
    240      15.8225      0.00000
    241      15.9007      0.00000
    242      16.0411      0.00000
    243      16.0904      0.00000
    244      16.1349      0.00000
    245      16.2851      0.00000
    246      16.4127      0.00000
    247      16.8196      0.00000
    248      16.9559      0.00000
    249      17.1323      0.00000
    250      17.3173      0.00000
    251      17.6203      0.00000
    252      18.3442      0.00000


--------------------------------------------------------------------------------------------------------


 soft charge-density along one line, spin component           1
         0         1         2         3         4         5         6         7         8         9
 total charge-density along one line
 
 pseudopotential strength for first ion, spin component:           1
 11.808 -14.338  -0.007  -0.003   0.012   0.008   0.003  -0.015
-14.338  17.426   0.008   0.003  -0.015  -0.011  -0.004   0.019
 -0.007   0.008  -7.819   0.004   0.056   9.261  -0.005  -0.076
 -0.003   0.003   0.004  -7.861   0.005  -0.005   9.317  -0.007
  0.012  -0.015   0.056   0.005  -7.827  -0.076  -0.007   9.271
  0.008  -0.011   9.261  -0.005  -0.076 -10.781   0.007   0.103
  0.003  -0.004  -0.005   9.317  -0.007   0.007 -10.858   0.009
 -0.015   0.019  -0.076  -0.007   9.271   0.103   0.009 -10.795
 total augmentation occupancy for first ion, spin component:           1
  2.643   0.391   0.023   0.009  -0.038   0.010   0.003  -0.016
  0.391   0.100   0.023   0.009  -0.040   0.006   0.002  -0.009
  0.023   0.023   2.153   0.004  -0.018   0.244  -0.003  -0.063
  0.009   0.009   0.004   2.116   0.000  -0.003   0.281  -0.005
 -0.038  -0.040  -0.018   0.000   2.157  -0.063  -0.005   0.253
  0.010   0.006   0.244  -0.003  -0.063   0.036  -0.001  -0.018
  0.003   0.002  -0.003   0.281  -0.005  -0.001   0.045  -0.001
 -0.016  -0.009  -0.063  -0.005   0.253  -0.018  -0.001   0.039


------------------------ aborting loop because EDIFF is reached ----------------------------------------


    CHARGE:  cpu time    0.6945: real time    0.6938
    FORLOC:  cpu time    0.0093: real time    0.0093
    FORNL :  cpu time    3.3574: real time    3.3567
    STRESS:  cpu time    3.9908: real time    3.9904
    FORCOR:  cpu time    0.0551: real time    0.0555
    FORHAR:  cpu time    0.0211: real time    0.0220
    MIXING:  cpu time    0.0050: real time    0.0050
    OFIELD:  cpu time    0.0004: real time    0.0013

  FORCE on cell =-STRESS in cart. coord.  units (eV):
  Direction    XX          YY          ZZ          XY          YZ          ZX
  --------------------------------------------------------------------------------------
  Alpha Z  1504.04639  1504.04639  1504.04639
  Ewald  -12987.25015-12989.24653 -7734.24642   114.19344    -5.32036    -6.01141
  Hartree  2759.24056  2758.57436  5673.16838    47.73133    -0.16706    -0.18729
  E(xc)   -2119.70614 -2119.71271 -2114.14548     0.11544    -0.06187    -0.06616
  Local    1731.76739  1734.24649 -6264.17765  -150.68289     2.52529     2.91979
  n-local    82.10474    81.96992   164.34791    -0.23173     1.11743     1.12633
  augment  3181.58479  3181.61748  3151.74156    -1.57207    -0.33641    -0.31625
  Kinetic  5839.97335  5840.35051  5610.94969    -1.38145     4.08542     4.39189
  Fock        0.00000     0.00000     0.00000     0.00000     0.00000     0.00000
  -------------------------------------------------------------------------------------
  Total      -8.23907    -8.15409    -8.31562     8.17207     1.84244     1.85689
  in kB     -23.53087   -23.28817   -23.74949    23.33952     5.26202     5.30329
  external pressure =      -23.52 kB  Pullay stress =        0.00 kB


 VOLUME and BASIS-vectors are now :
 -----------------------------------------------------------------------------
  energy-cutoff  :      480.00
  volume of cell :      560.98
      direct lattice vectors                 reciprocal lattice vectors
     9.432027167  0.000000000  0.000000000     0.106021747  0.000000000  0.000000000
     0.000000000  9.432027167  0.000000000     0.000000000  0.106021747  0.000000000
     0.000000000  0.000000000  6.305806843     0.000000000  0.000000000  0.158583989

  length of vectors
     9.432027167  9.432027167  6.305806843     0.106021747  0.106021747  0.158583989


 FORCES acting on ions
    electron-ion (+dipol)            ewald-force                    non-local-force                 convergence-correction
 -----------------------------------------------------------------------------------------------
   -.578E+02 0.249E+02 0.743E+01   0.628E+02 -.276E+02 -.852E+01   -.496E+01 0.270E+01 0.110E+01   -.125E-02 -.125E-01 -.196E-02
   0.481E+02 -.457E+02 -.362E+01   -.507E+02 0.485E+02 0.362E+01   0.252E+01 -.282E+01 0.151E-02   0.684E-02 0.567E-02 -.990E-03
   0.308E+02 -.352E+02 0.599E+00   -.339E+02 0.381E+02 -.365E+00   0.305E+01 -.295E+01 -.232E+00   -.717E-03 0.569E-02 0.525E-03
   0.359E+02 0.398E+02 0.439E+01   -.384E+02 -.424E+02 -.463E+01   0.248E+01 0.267E+01 0.243E+00   -.994E-03 -.396E-02 -.152E-02
   -.502E+02 -.279E+02 -.276E+01   0.530E+02 0.300E+02 0.271E+01   -.281E+01 -.208E+01 0.543E-01   -.505E-02 0.119E-01 -.250E-02
   0.301E+02 -.530E+02 -.119E+01   -.329E+02 0.567E+02 0.600E+00   0.278E+01 -.374E+01 0.590E+00   -.171E-01 0.304E-02 0.393E-03
   -.466E+02 0.489E+02 0.125E+01   0.484E+02 -.526E+02 -.976E+00   -.186E+01 0.367E+01 -.279E+00   0.110E-01 0.560E-02 0.211E-02
   0.329E+02 0.410E+02 -.317E+01   -.354E+02 -.435E+02 0.328E+01   0.253E+01 0.244E+01 -.114E+00   0.602E-03 -.448E-02 0.103E-02
   -.276E+02 -.496E+02 0.438E+01   0.297E+02 0.525E+02 -.450E+01   -.210E+01 -.286E+01 0.116E+00   0.156E-01 -.500E-02 0.180E-02
   -.498E+02 -.272E+02 0.430E+01   0.528E+02 0.292E+02 -.441E+01   -.294E+01 -.201E+01 0.108E+00   -.826E-02 0.110E-01 0.210E-02
   -.463E+02 0.481E+02 -.301E+01   0.492E+02 -.506E+02 0.296E+01   -.293E+01 0.252E+01 0.586E-01   0.781E-02 -.455E-03 -.104E-02
   0.322E+02 0.316E+02 -.395E+01   -.338E+02 -.332E+02 0.382E+01   0.167E+01 0.160E+01 0.132E+00   0.333E-02 -.175E-02 -.708E-02
   -.310E+02 -.308E+02 -.483E+01   0.304E+02 0.302E+02 0.543E+01   0.542E+00 0.633E+00 -.599E+00   -.526E-02 -.595E-02 -.347E-02
   0.334E+02 -.346E+02 -.265E+01   -.364E+02 0.376E+02 0.298E+01   0.300E+01 -.303E+01 -.334E+00   -.947E-02 -.667E-02 -.394E-04
   -.351E+02 0.328E+02 -.201E+01   0.382E+02 -.356E+02 0.229E+01   -.308E+01 0.287E+01 -.279E+00   -.241E-02 -.426E-02 0.121E-02
   0.313E+02 0.308E+02 0.684E+01   -.333E+02 -.326E+02 -.739E+01   0.197E+01 0.184E+01 0.547E+00   0.306E-02 -.190E-02 0.398E-03
   -.462E+02 -.460E+02 -.223E+01   0.491E+02 0.488E+02 0.281E+01   -.287E+01 -.283E+01 -.582E+00   -.433E-02 -.476E-02 0.122E-02
   0.254E+02 -.578E+02 0.640E+01   -.281E+02 0.627E+02 -.739E+01   0.272E+01 -.490E+01 0.995E+00   -.156E-01 0.432E-03 -.262E-02
   0.414E+02 0.327E+02 -.318E+01   -.439E+02 -.352E+02 0.330E+01   0.244E+01 0.250E+01 -.118E+00   -.803E-02 0.155E-02 -.143E-03
   -.357E+02 0.303E+02 -.926E-01   0.387E+02 -.332E+02 0.392E+00   -.299E+01 0.295E+01 -.301E+00   0.551E-02 0.528E-03 0.203E-03
   -.307E+02 -.304E+02 -.355E+02   0.351E+02 0.348E+02 0.408E+02   -.440E+01 -.441E+01 -.533E+01   0.129E-01 0.102E-01 -.311E-02
   -.528E+02 0.296E+02 -.219E+01   0.566E+02 -.324E+02 0.169E+01   -.377E+01 0.276E+01 0.500E+00   -.256E-03 -.153E-01 0.686E-03
   0.491E+02 -.460E+02 0.184E+01   -.528E+02 0.478E+02 -.162E+01   0.369E+01 -.175E+01 -.224E+00   0.663E-02 0.270E-02 0.282E-02
   -.285E+02 -.499E+02 -.278E+01   0.306E+02 0.526E+02 0.273E+01   -.212E+01 -.276E+01 0.581E-01   0.104E-01 -.964E-03 -.229E-02
   0.550E+02 0.549E+02 0.118E+02   -.586E+02 -.585E+02 -.136E+02   0.363E+01 0.358E+01 0.186E+01   -.524E-02 -.566E-02 -.399E-02
   0.445E+01 0.494E+01 0.235E+02   0.707E+00 -.476E+00 -.494E+02   -.514E+01 -.446E+01 0.258E+02   -.793E-02 -.766E-02 -.482E-03
   0.401E+02 0.358E+02 0.436E+01   -.428E+02 -.382E+02 -.460E+01   0.274E+01 0.239E+01 0.241E+00   -.625E-02 -.457E-02 -.108E-02
   -.151E+02 0.482E+02 0.108E+02   0.151E+02 -.504E+02 -.115E+02   0.832E-02 0.211E+01 0.777E+00   -.115E-01 0.138E-01 0.370E-03
   0.439E+02 -.204E+02 -.351E+01   -.451E+02 0.204E+02 0.313E+01   0.122E+01 0.488E-01 0.387E+00   0.183E-01 -.162E-01 -.287E-02
   -.206E+02 0.437E+02 -.425E+01   0.205E+02 -.449E+02 0.392E+01   0.552E-01 0.115E+01 0.323E+00   -.149E-01 0.241E-01 -.351E-04
   -.266E+02 -.264E+02 0.266E+02   0.310E+02 0.308E+02 -.299E+02   -.448E+01 -.444E+01 0.335E+01   0.160E-01 0.102E-01 0.126E-02
   0.483E+02 -.151E+02 0.101E+02   -.505E+02 0.152E+02 -.108E+02   0.217E+01 -.223E-01 0.725E+00   0.161E-01 -.711E-02 0.341E-02
   -.121E+02 -.109E+02 0.627E+01   0.125E+02 0.114E+02 -.565E+01   -.476E+00 -.481E+00 -.616E+00   0.218E-01 0.532E-02 -.863E-02
   -.740E+01 -.773E+01 0.802E+01   0.734E+01 0.768E+01 -.818E+01   0.567E-01 0.533E-01 0.149E+00   -.222E-02 -.752E-02 0.477E-02
   0.314E+02 0.312E+02 0.501E+02   -.285E+02 -.283E+02 -.469E+02   -.290E+01 -.289E+01 -.322E+01   0.157E-01 0.136E-01 0.146E-01
   -.324E+02 -.327E+02 0.180E+01   0.312E+02 0.314E+02 -.201E+01   0.129E+01 0.130E+01 0.212E+00   -.224E-01 -.192E-01 0.929E-02
   -.930E+01 -.958E+01 -.536E+01   0.900E+01 0.929E+01 0.575E+01   0.299E+00 0.286E+00 -.397E+00   -.822E-03 -.624E-02 0.771E-02
   -.545E+01 0.147E+02 -.287E+01   0.457E+01 -.138E+02 0.261E+01   0.924E+00 -.934E+00 0.252E+00   -.407E-01 0.311E-01 0.657E-02
   0.620E+02 0.617E+02 -.561E+02   -.587E+02 -.583E+02 0.514E+02   -.338E+01 -.341E+01 0.466E+01   0.267E-01 0.144E-01 -.186E-01
   0.107E+02 -.163E+02 -.893E-01   -.104E+02 0.158E+02 0.249E-01   -.363E+00 0.542E+00 0.705E-01   0.368E-02 0.955E-03 -.701E-02
   -.166E+02 0.112E+02 -.149E+00   0.161E+02 -.108E+02 0.875E-01   0.541E+00 -.363E+00 0.653E-01   -.727E-02 0.768E-02 -.482E-02
   0.155E+02 -.591E+01 -.306E+01   -.145E+02 0.502E+01 0.279E+01   -.944E+00 0.916E+00 0.261E+00   0.304E-01 -.278E-01 0.972E-02
   -.832E+01 0.188E+02 -.106E+01   0.764E+01 -.183E+02 0.967E+00   0.721E+00 -.599E+00 0.104E+00   -.394E-01 0.297E-01 -.557E-02
   0.917E+01 -.210E+02 -.356E+01   -.875E+01 0.209E+02 0.333E+01   -.427E+00 0.144E+00 0.224E+00   0.720E-02 -.744E-02 0.763E-02
   -.213E+02 0.984E+01 -.351E+01   0.212E+02 -.940E+01 0.328E+01   0.153E+00 -.451E+00 0.229E+00   -.830E-02 0.190E-01 0.606E-02
   0.193E+02 -.852E+01 -.934E+00   -.187E+02 0.782E+01 0.842E+00   -.619E+00 0.723E+00 0.102E+00   0.346E-01 -.269E-01 -.977E-02
   0.700E+01 0.813E+01 -.180E+01   -.537E+01 -.646E+01 0.154E+01   -.167E+01 -.168E+01 0.254E+00   0.304E-01 0.116E-01 0.752E-02
   -.264E+02 -.270E+02 -.158E+01   0.232E+02 0.238E+02 0.927E-01   0.324E+01 0.326E+01 0.149E+01   -.257E-01 -.231E-01 -.747E-02
   0.114E+02 0.102E+02 -.561E+02   -.133E+02 -.120E+02 0.631E+02   0.190E+01 0.180E+01 -.699E+01   -.109E-02 -.783E-03 0.102E-02
 -----------------------------------------------------------------------------------------------
   0.884E+01 0.842E+01 -.265E+02   0.764E-13 0.284E-13 -.171E-12   -.888E+01 -.844E+01 0.265E+02   0.322E-01 0.117E-01 -.268E-02
 
 
 POSITION                                       TOTAL-FORCE (eV/Angst)
 -----------------------------------------------------------------------------------
      0.91539      8.51939      4.69976        -0.000428      0.006675      0.003835
      3.83284      5.66315      4.74126         0.000646     -0.001664     -0.003774
      8.51463      5.61602      4.72558         0.001258     -0.000181      0.002093
      6.16429      1.43819      6.29529         0.006730     -0.002769      0.000046
      8.00648      3.26252      0.00773        -0.000245      0.002739      0.000308
      8.53046      0.89686      1.53270         0.003611      0.000948      0.000230
      5.60978      3.78741      1.58359         0.000009      0.000780     -0.003999
      6.15394      1.44843      3.15802         0.006371     -0.001191     -0.000315
      3.26092      8.00620      3.14030        -0.003117      0.001026      0.000362
      8.01182      3.25452      3.14046         0.000277      0.002687     -0.000476
      5.66847      3.83116      4.73981        -0.004231     -0.001709     -0.000487
      6.16203      6.16254      0.00784        -0.000079     -0.002213      0.000082
      7.93875      7.93334      6.28809        -0.001839      0.003724      0.001107
      8.52117      5.62369      1.58150         0.000896      0.003618     -0.001660
      5.62667      8.52404      1.58016         0.001994     -0.005875      0.000810
      6.16595      6.16907      3.14193         0.001602     -0.001800     -0.000158
      7.98775      7.98588      3.14771        -0.000682      0.001985      0.000202
      8.52304      0.90954      4.70200         0.006605      0.001531      0.003221
      1.45091      6.15062      3.15787         0.000456      0.004956      0.000327
      5.61836      8.51718      4.72727         0.000017     -0.003845     -0.000666
      3.34325      3.34276      3.25889        -0.001312     -0.003847     -0.007113
      0.90145      8.52557      1.53481        -0.004110      0.001379      0.000155
      3.78878      5.60419      1.58221         0.003057      0.003365     -0.001066
      3.26606      8.00331      0.00781        -0.000283     -0.000752     -0.000278
      1.48380      1.48489      3.11382         0.000533     -0.002619      0.002711
      1.38477      1.37771      0.09072         0.009986      0.001797      0.008247
      1.43725      6.16469      6.29510         0.002366      0.003045     -0.000212
      0.97225      3.81004      1.57954         0.000902     -0.001126      0.001681
      3.75755      0.91712      4.75040        -0.002805      0.004301      0.001781
      0.91779      3.75865      4.75163         0.003846     -0.004555     -0.001543
      3.28505      3.28238      6.28353        -0.002147     -0.002702     -0.003706
      3.81040      0.97189      1.58156         0.003384     -0.001094     -0.000632
      4.76358      4.76141      3.17141        -0.003296     -0.007937     -0.004650
      7.05250      7.05304      4.71159        -0.002063     -0.007338     -0.004141
      2.55489      2.55480      1.66420        -0.002953     -0.018341     -0.011889
      0.00241      9.43150      3.12357        -0.002074     -0.004616      0.006153
      7.06649      7.06694      1.58251        -0.001832     -0.007349      0.004517
      0.00649      4.71003      3.15697         0.002062      0.006780     -0.000616
      2.37189      2.37280      4.73251         0.008453     -0.000819     -0.008200
      2.37291      7.07697      4.72650         0.000164      0.006553     -0.001014
      7.08137      2.36833      4.72672         0.001298      0.008243     -0.000737
      4.71182      0.00570      3.15723         0.003497      0.000393     -0.000222
      9.43031      4.71856      0.00583         0.008687     -0.001376      0.001304
      2.35638      7.06673      1.57204         0.000744      0.004861      0.001323
      7.07096      2.35221      1.57204         0.000120      0.008133      0.000800
      4.71696      0.00050      0.00610         0.009089     -0.006098      0.001182
      4.74700      4.74190      0.00034        -0.008206      0.000891     -0.000782
      9.31217      9.30397      6.23569        -0.007742      0.001114     -0.002543
      1.15332      1.16080      1.03143        -0.039220      0.010293      0.018405
 -----------------------------------------------------------------------------------
    total drift:                               -0.001489     -0.000560      0.001456


--------------------------------------------------------------------------------------------------------



  FREE ENERGIE OF THE ION-ELECTRON SYSTEM (eV)
  ---------------------------------------------------
  free  energy   TOTEN  =      -324.57631904 eV

  energy  without entropy=     -324.57631904  energy(sigma->0) =     -324.57631904
 


--------------------------------------------------------------------------------------------------------


    POTLOK:  cpu time    0.1622: real time    0.1626


--------------------------------------------------------------------------------------------------------


 stress matrix after NEB project (eV)
     -8.23907      8.17207      1.85689
      8.17207     -8.15409      1.84244
      1.85689      1.84244     -8.31562
  FORCES: max atom, RMS     0.044530    0.009464
  FORCE total and by dimension    0.066248    0.039220
  Stress total and by dimension   18.728898    8.315618
 Quasi-Newton relaxation of ions (Broydens 2nd method)
  g(Force)  = 0.212E-03   g(Stress)= 0.000E+00

 Reset! Starting new Quasi-Newton update for ions 


--------------------------------------------------------------------------------------------------------


  
 reached required accuracy - stopping structural energy minimisation
 writing wavefunctions
     LOOP+:  cpu time  538.4027: real time  574.7038
    4ORBIT:  cpu time    0.0000: real time    0.0000

 total amount of memory used by VASP MPI-rank0    39434. kBytes
=======================================================================

   base      :      30000. kBytes
   nonl-proj :       1883. kBytes
   fftplans  :       2038. kBytes
   grid      :       1144. kBytes
   one-center:         15. kBytes
   wavefun   :       4354. kBytes
 
  
  
 General timing and accounting informations for this job:
 ========================================================
  
                  Total CPU time used (sec):      585.631
                            User time (sec):      410.614
                          System time (sec):      175.016
                         Elapsed time (sec):      624.059
  
                   Maximum memory used (kb):      145476.
                   Average memory used (kb):           0.
  
                          Minor page faults:       489077
                          Major page faults:           47
                 Voluntary context switches:         9320
