 running on   32 total cores
 distrk:  each k-point on   32 cores,    1 groups
 distr:  one band on    8 cores,    4 groups
 using from now: INCAR     
 vasp.5.4.1 05Feb16 (build Dec 31 2016 05:41:53) complex                        
  
 POSCAR found type information on POSCAR  O  Sn
 POSCAR found :  2 types and      49 ions
 scaLAPACK will be used

 ----------------------------------------------------------------------------- 
|                                                                             |
|  ADVICE TO THIS USER RUNNING 'VASP/VAMP'   (HEAR YOUR MASTER'S VOICE ...):  |
|                                                                             |
|      You have a (more or less) 'large supercell' and for larger cells       |
|      it might be more efficient to use real space projection opertators     |
|      So try LREAL= Auto  in the INCAR   file.                               |
|      Mind: At the moment your POTCAR file does not contain real space       |
|       projectors, and has to be modified,  BUT if you                       |
|      want to do an extremely  accurate calculation you might also keep the  |
|      reciprocal projection scheme          (i.e. LREAL=.FALSE.)             |
|                                                                             |
 ----------------------------------------------------------------------------- 

 LDA part: xc-table for Pade appr. of Perdew
 POSCAR, INCAR and KPOINTS ok, starting setup
 FFT: planning ...
 WAVECAR not read
 entering main loop
       N       E                     dE             d eps       ncg     rms          rms(c)
RMM:   1     0.197004349668E+02    0.19700E+02   -0.23750E+05  2560   0.235E+03
RMM:   2     0.537222557311E+03    0.51752E+03   -0.46054E+04  2560   0.431E+02
RMM:   3    -0.146181439874E+03   -0.68340E+03   -0.12843E+04  2560   0.205E+02
RMM:   4    -0.285706526942E+03   -0.13953E+03   -0.52149E+03  6194   0.159E+02
RMM:   5    -0.349885929287E+03   -0.64179E+02   -0.60797E+02  6437   0.384E+01    0.412E+01
RMM:   6    -0.309976664904E+03    0.39909E+02   -0.19043E+02  6111   0.248E+01    0.173E+01
RMM:   7    -0.312556555854E+03   -0.25799E+01   -0.38712E+01  6323   0.904E+00    0.120E+01
RMM:   8    -0.312212896879E+03    0.34366E+00   -0.77739E+00  6230   0.421E+00    0.931E+00
RMM:   9    -0.311977431457E+03    0.23547E+00   -0.34255E+00  6094   0.392E+00    0.537E+00
RMM:  10    -0.311777656194E+03    0.19978E+00   -0.48259E-01  6269   0.123E+00    0.203E+00
RMM:  11    -0.311723336821E+03    0.54319E-01   -0.51462E-01  6113   0.135E+00    0.883E-01
RMM:  12    -0.311730469616E+03   -0.71328E-02   -0.35067E-02  6348   0.321E-01    0.110E+00
RMM:  13    -0.311729756451E+03    0.71317E-03   -0.15717E-02  6107   0.243E-01    0.847E-01
RMM:  14    -0.311726976856E+03    0.27796E-02   -0.25436E-03  5312   0.103E-01    0.276E-01
RMM:  15    -0.311726841949E+03    0.13491E-03   -0.50398E-04  5055   0.519E-02    0.123E-01
RMM:  16    -0.311726749314E+03    0.92635E-04   -0.50481E-04  4850   0.408E-02
   1 F= -.31172675E+03 E0= -.31167703E+03  d E =-.311727E+03
 BRION: g(F)=  0.328E+01 g(S)=  0.000E+00
 bond charge predicted
       N       E                     dE             d eps       ncg     rms          rms(c)
RMM:   1    -0.345450986916E+03   -0.33724E+02   -0.11628E+03  5440   0.576E+01    0.877E+00
RMM:   2    -0.315982328086E+03    0.29469E+02   -0.65080E+01  6110   0.240E+01    0.115E+01
RMM:   3    -0.314379086059E+03    0.16032E+01   -0.27159E+00  6886   0.375E+00    0.554E+00
RMM:   4    -0.314133222772E+03    0.24586E+00   -0.30993E-01  6109   0.112E+00    0.337E+00
RMM:   5    -0.314102765771E+03    0.30457E-01   -0.18402E-01  6097   0.672E-01    0.359E+00
RMM:   6    -0.313980343731E+03    0.12242E+00   -0.22585E-01  6090   0.768E-01    0.153E+00
RMM:   7    -0.313971014209E+03    0.93295E-02   -0.46395E-02  6079   0.359E-01    0.592E-01
RMM:   8    -0.313973931390E+03   -0.29172E-02   -0.97105E-03  6092   0.211E-01    0.452E-01
RMM:   9    -0.313972852280E+03    0.10791E-02   -0.30697E-03  5428   0.104E-01    0.262E-01
RMM:  10    -0.313972539592E+03    0.31269E-03   -0.35694E-04  4700   0.479E-02    0.715E-02
RMM:  11    -0.313972527301E+03    0.12291E-04   -0.26366E-04  4098   0.311E-02
   2 F= -.31397253E+03 E0= -.31393494E+03  d E =-.224578E+01
 BRION: g(F)=  0.124E+01 g(S)=  0.000E+00 retain N=  1 mean eig= 0.99
 eig:   0.992
 bond charge predicted
       N       E                     dE             d eps       ncg     rms          rms(c)
RMM:   1    -0.325822056809E+03   -0.11850E+02   -0.38875E+02  5412   0.353E+01    0.792E+00
RMM:   2    -0.315716796795E+03    0.10105E+02   -0.23706E+01  6107   0.153E+01    0.685E+00
RMM:   3    -0.315048012757E+03    0.66878E+00   -0.17625E+00  6875   0.291E+00    0.436E+00
RMM:   4    -0.314901583587E+03    0.14643E+00   -0.11872E-01  6031   0.730E-01    0.327E+00
RMM:   5    -0.314791693908E+03    0.10989E+00   -0.87124E-02  6010   0.532E-01    0.153E+00
RMM:   6    -0.314823460439E+03   -0.31767E-01   -0.79716E-02  6063   0.539E-01    0.314E+00
RMM:   7    -0.314777621734E+03    0.45839E-01   -0.89797E-03  6227   0.273E-01    0.107E+00
RMM:   8    -0.314785135215E+03   -0.75135E-02   -0.13868E-03  5128   0.968E-02    0.924E-01
RMM:   9    -0.314784409470E+03    0.72575E-03   -0.25585E-03  5560   0.938E-02    0.178E-01
RMM:  10    -0.314786999744E+03   -0.25903E-02   -0.94893E-04  5006   0.827E-02    0.325E-01
RMM:  11    -0.314786233971E+03    0.76577E-03   -0.25779E-04  3993   0.380E-02    0.846E-02
RMM:  12    -0.314786320570E+03   -0.86599E-04   -0.34889E-05  3026   0.170E-02
   3 F= -.31478632E+03 E0= -.31476294E+03  d E =-.813793E+00
 BRION: g(F)=  0.885E+00 g(S)=  0.000E+00 retain N=  2 mean eig= 0.80
 eig:   0.799  0.799
 bond charge predicted
       N       E                     dE             d eps       ncg     rms          rms(c)
RMM:   1    -0.324054668956E+03   -0.92684E+01   -0.27515E+02  5228   0.280E+01    0.652E+00
RMM:   2    -0.315889840972E+03    0.81648E+01   -0.16693E+01  6110   0.128E+01    0.511E+00
RMM:   3    -0.315546850891E+03    0.34299E+00   -0.80111E-01  6869   0.199E+00    0.310E+00
RMM:   4    -0.315473738872E+03    0.73112E-01   -0.66310E-02  6024   0.503E-01    0.229E+00
RMM:   5    -0.315427723400E+03    0.46015E-01   -0.42051E-02  5972   0.371E-01    0.113E+00
RMM:   6    -0.315413225253E+03    0.14498E-01   -0.42253E-02  6070   0.363E-01    0.214E-01
RMM:   7    -0.315413352582E+03   -0.12733E-03   -0.56205E-03  6255   0.115E-01    0.919E-02
RMM:   8    -0.315413286875E+03    0.65707E-04   -0.42706E-04  4568   0.447E-02
   4 F= -.31541329E+03 E0= -.31541324E+03  d E =-.626966E+00
 BRION: g(F)=  0.504E+00 g(S)=  0.000E+00 retain N=  3 mean eig= 1.45
 eig:   0.955  1.696  1.696
 bond charge predicted
       N       E                     dE             d eps       ncg     rms          rms(c)
RMM:   1    -0.322013431544E+03   -0.66001E+01   -0.20441E+02  5120   0.225E+01    0.323E+00
RMM:   2    -0.316173057773E+03    0.58404E+01   -0.12712E+01  6107   0.103E+01    0.415E+00
RMM:   3    -0.315891451065E+03    0.28161E+00   -0.32909E-01  6799   0.124E+00    0.213E+00
RMM:   4    -0.315835720697E+03    0.55730E-01   -0.79481E-02  6094   0.487E-01    0.970E-01
RMM:   5    -0.315826558686E+03    0.91620E-02   -0.34579E-02  6020   0.297E-01    0.265E-01
RMM:   6    -0.315826446376E+03    0.11231E-03   -0.37075E-03  5783   0.122E-01    0.607E-02
RMM:   7    -0.315826470429E+03   -0.24054E-04   -0.30341E-04  3994   0.381E-02
   5 F= -.31582647E+03 E0= -.31582647E+03  d E =-.413184E+00
 BRION: g(F)=  0.259E+00 g(S)=  0.000E+00 retain N=  4 mean eig= 1.62
 eig:   2.143  2.143  1.090  1.090
 bond charge predicted
       N       E                     dE             d eps       ncg     rms          rms(c)
RMM:   1    -0.327135508466E+03   -0.11309E+02   -0.39330E+02  5154   0.302E+01    0.508E+00
RMM:   2    -0.316922314609E+03    0.10213E+02   -0.26536E+01  6105   0.143E+01    0.592E+00
RMM:   3    -0.316314531872E+03    0.60778E+00   -0.63617E-01  6757   0.165E+00    0.366E+00
RMM:   4    -0.316111446974E+03    0.20308E+00   -0.29828E-01  6095   0.918E-01    0.164E+00
RMM:   5    -0.316074388861E+03    0.37058E-01   -0.12745E-01  6081   0.574E-01    0.504E-01
RMM:   6    -0.316073058756E+03    0.13301E-02   -0.16114E-02  6007   0.204E-01    0.160E-01
RMM:   7    -0.316073028276E+03    0.30480E-04   -0.18367E-03  5450   0.844E-02    0.863E-02
RMM:   8    -0.316072951557E+03    0.76719E-04   -0.53401E-04  4795   0.446E-02
   6 F= -.31607295E+03 E0= -.31607295E+03  d E =-.246481E+00
 BRION: g(F)=  0.118E+00 g(S)=  0.000E+00 retain N=  5 mean eig= 1.81
 eig:   2.495  2.495  1.436  1.436  1.165
 bond charge predicted
       N       E                     dE             d eps       ncg     rms          rms(c)
RMM:   1    -0.316885568643E+03   -0.81254E+00   -0.22484E+01  5208   0.806E+00    0.758E-01
RMM:   2    -0.316110551409E+03    0.77502E+00   -0.14066E+00  6100   0.377E+00    0.290E-01
RMM:   3    -0.316109830699E+03    0.72071E-03   -0.39631E-02  6819   0.441E-01    0.266E-01
RMM:   4    -0.316109363881E+03    0.46682E-03   -0.13906E-03  5663   0.874E-02    0.183E-01
RMM:   5    -0.316108932176E+03    0.43171E-03   -0.11596E-03  5382   0.707E-02    0.559E-02
RMM:   6    -0.316108858231E+03    0.73945E-04   -0.36163E-04  4571   0.383E-02
   7 F= -.31610886E+03 E0= -.31610886E+03  d E =-.359067E-01
 BRION: g(F)=  0.300E-01 g(S)=  0.000E+00 retain N=  6 mean eig= 1.72
 eig:   2.839  2.839  1.337  1.337  1.073  0.867
 bond charge predicted
       N       E                     dE             d eps       ncg     rms          rms(c)
RMM:   1    -0.316323875541E+03   -0.21494E+00   -0.67780E+00  5120   0.460E+00    0.368E-01
RMM:   2    -0.316126233936E+03    0.19764E+00   -0.36582E-01  6100   0.196E+00    0.141E-01
RMM:   3    -0.316126432385E+03   -0.19845E-03   -0.10879E-02  6746   0.237E-01    0.140E-01
RMM:   4    -0.316126417228E+03    0.15158E-04   -0.34553E-04  3806   0.400E-02
   8 F= -.31612642E+03 E0= -.31612642E+03  d E =-.175590E-01
 BRION: g(F)=  0.168E-01 g(S)=  0.000E+00 retain N=  7 mean eig= 2.43
 eig:   7.954  2.625  2.625  1.278  1.278  1.097  0.178
 bond charge predicted
       N       E                     dE             d eps       ncg     rms          rms(c)
RMM:   1    -0.316937957341E+03   -0.81152E+00   -0.32982E+01  5120   0.102E+01    0.723E-01
RMM:   2    -0.316157737934E+03    0.78022E+00   -0.13789E+00  6100   0.374E+00    0.337E-01
RMM:   3    -0.316157540587E+03    0.19735E-03   -0.36316E-02  6791   0.438E-01    0.254E-01
RMM:   4    -0.316157447465E+03    0.93122E-04   -0.12542E-03  5735   0.779E-02    0.176E-01
RMM:   5    -0.316157366996E+03    0.80469E-04   -0.85041E-04  4936   0.592E-02
   9 F= -.31615737E+03 E0= -.31615737E+03  d E =-.309498E-01
 BRION: g(F)=  0.960E-02 g(S)=  0.000E+00 retain N=  7 mean eig= 2.06
 eig:   6.072  1.855  1.855  1.156  1.117  1.117  1.218
 bond charge predicted
       N       E                     dE             d eps       ncg     rms          rms(c)
RMM:   1    -0.316555104566E+03   -0.39766E+00   -0.17573E+01  5120   0.756E+00    0.517E-01
RMM:   2    -0.316173013101E+03    0.38209E+00   -0.68523E-01  6100   0.264E+00    0.228E-01
RMM:   3    -0.316173207852E+03   -0.19475E-03   -0.19367E-02  6753   0.319E-01    0.186E-01
RMM:   4    -0.316173172471E+03    0.35381E-04   -0.75007E-04  4992   0.593E-02
  10 F= -.31617317E+03 E0= -.31617317E+03  d E =-.158055E-01
 BRION: g(F)=  0.556E-02 g(S)=  0.000E+00 retain N=  7 mean eig= 2.41
 eig:   5.117  3.038  3.038  2.389  1.182  1.182  0.906
 bond charge predicted
       N       E                     dE             d eps       ncg     rms          rms(c)
RMM:   1    -0.316462890819E+03   -0.28968E+00   -0.13083E+01  5120   0.658E+00    0.453E-01
RMM:   2    -0.316183791587E+03    0.27910E+00   -0.50818E-01  6100   0.228E+00    0.203E-01
RMM:   3    -0.316184020755E+03   -0.22917E-03   -0.15028E-02  6737   0.281E-01    0.169E-01
RMM:   4    -0.316184027203E+03   -0.64481E-05   -0.52880E-04  4684   0.502E-02
  11 F= -.31618403E+03 E0= -.31618403E+03  d E =-.108547E-01
 BRION: g(F)=  0.349E-02 g(S)=  0.000E+00 retain N=  8 mean eig= 2.62
 eig:   6.704  6.704  2.223  1.249  1.073  1.073  0.986  0.986
 bond charge predicted
       N       E                     dE             d eps       ncg     rms          rms(c)
RMM:   1    -0.316456918045E+03   -0.27290E+00   -0.12669E+01  5120   0.655E+00    0.476E-01
RMM:   2    -0.316191192275E+03    0.26573E+00   -0.49690E-01  6100   0.225E+00    0.199E-01
RMM:   3    -0.316191614696E+03   -0.42242E-03   -0.15818E-02  6758   0.286E-01    0.164E-01
RMM:   4    -0.316191615567E+03   -0.87100E-06   -0.54932E-04  4626   0.509E-02
  12 F= -.31619162E+03 E0= -.31619162E+03  d E =-.758836E-02
 BRION: g(F)=  0.207E-02 g(S)=  0.000E+00 retain N=  6 mean eig= 3.37
 eig:   7.768  7.768  0.665  0.665  1.664  1.664
 bond charge predicted
       N       E                     dE             d eps       ncg     rms          rms(c)
RMM:   1    -0.316321486633E+03   -0.12987E+00   -0.63170E+00  5120   0.471E+00    0.356E-01
RMM:   2    -0.316195326948E+03    0.12616E+00   -0.24419E-01  6100   0.158E+00    0.142E-01
RMM:   3    -0.316195634717E+03   -0.30777E-03   -0.85352E-03  6653   0.208E-01    0.121E-01
RMM:   4    -0.316195650825E+03   -0.16109E-04   -0.31923E-04  3586   0.379E-02
  13 F= -.31619565E+03 E0= -.31619565E+03  d E =-.403526E-02
 BRION: g(F)=  0.866E-03 g(S)=  0.000E+00 retain N=  4 mean eig= 4.48
 eig:   7.302  7.302  1.651  1.651
 bond charge predicted
       N       E                     dE             d eps       ncg     rms          rms(c)
RMM:   1    -0.316229741520E+03   -0.34107E-01   -0.16107E+00  5120   0.243E+00    0.216E-01
RMM:   2    -0.316197173126E+03    0.32568E-01   -0.68207E-02  6100   0.836E-01    0.783E-02
RMM:   3    -0.316197320302E+03   -0.14718E-03   -0.28303E-03  6043   0.117E-01    0.655E-02
RMM:   4    -0.316197323688E+03   -0.33861E-05   -0.11972E-04  3213   0.266E-02
  14 F= -.31619732E+03 E0= -.31619732E+03  d E =-.167286E-02
 BRION: g(F)=  0.688E-03 g(S)=  0.000E+00 retain N=  5 mean eig= 3.95
 eig:   7.370  7.370  1.999  1.999  1.028
 bond charge predicted
       N       E                     dE             d eps       ncg     rms          rms(c)
RMM:   1    -0.316210344131E+03   -0.13024E-01   -0.56617E-01  5120   0.143E+00    0.126E-01
RMM:   2    -0.316198095511E+03    0.12249E-01   -0.24959E-02  6099   0.506E-01    0.467E-02
RMM:   3    -0.316198133589E+03   -0.38077E-04   -0.96956E-04  5063   0.700E-02
  15 F= -.31619813E+03 E0= -.31619813E+03  d E =-.809900E-03
 BRION: g(F)=  0.386E-03 g(S)=  0.000E+00 retain N=  5 mean eig= 4.00
 eig:   6.648  6.648  1.131  2.779  2.779
 bond charge predicted
       N       E                     dE             d eps       ncg     rms          rms(c)
RMM:   1    -0.316217798468E+03   -0.19703E-01   -0.80014E-01  5120   0.165E+00    0.123E-01
RMM:   2    -0.316199035588E+03    0.18763E-01   -0.36143E-02  6098   0.614E-01    0.511E-02
RMM:   3    -0.316199069006E+03   -0.33418E-04   -0.12988E-03  5454   0.796E-02    0.495E-02
RMM:   4    -0.316199067582E+03    0.14236E-05   -0.99433E-05  3265   0.260E-02
  16 F= -.31619907E+03 E0= -.31619907E+03  d E =-.933994E-03
 BRION: g(F)=  0.318E-03 g(S)=  0.000E+00 retain N=  6 mean eig= 3.61
 eig:   7.359  7.359  3.086  3.086  0.742  0.032
 bond charge predicted
       N       E                     dE             d eps       ncg     rms          rms(c)
RMM:   1    -0.316224662563E+03   -0.25594E-01   -0.12914E+00  5120   0.219E+00    0.175E-01
RMM:   2    -0.316199945757E+03    0.24717E-01   -0.52696E-02  6099   0.728E-01    0.628E-02
RMM:   3    -0.316200062059E+03   -0.11630E-03   -0.22644E-03  5829   0.104E-01    0.628E-02
RMM:   4    -0.316200063613E+03   -0.15536E-05   -0.10869E-04  3213   0.254E-02
  17 F= -.31620006E+03 E0= -.31620006E+03  d E =-.996030E-03
 BRION: g(F)=  0.175E-03 g(S)=  0.000E+00 retain N=  4 mean eig= 4.47
 eig:   7.542  7.542  1.396  1.396
 bond charge predicted
       N       E                     dE             d eps       ncg     rms          rms(c)
RMM:   1    -0.316214609873E+03   -0.14548E-01   -0.73348E-01  5120   0.165E+00    0.143E-01
RMM:   2    -0.316200513308E+03    0.14097E-01   -0.30050E-02  6099   0.548E-01    0.530E-02
RMM:   3    -0.316200577842E+03   -0.64534E-04   -0.12927E-03  5270   0.790E-02    0.422E-02
RMM:   4    -0.316200579810E+03   -0.19681E-05   -0.11723E-04  3263   0.279E-02
  18 F= -.31620058E+03 E0= -.31620058E+03  d E =-.516197E-03
 BRION: g(F)=  0.981E-04 g(S)=  0.000E+00 retain N=  4 mean eig= 3.77
 eig:   6.277  6.277  1.257  1.257
 bond charge predicted
       N       E                     dE             d eps       ncg     rms          rms(c)
RMM:   1    -0.316211092506E+03   -0.10515E-01   -0.49884E-01  5120   0.133E+00    0.103E-01
RMM:   2    -0.316200910615E+03    0.10182E-01   -0.20235E-02  6097   0.448E-01    0.402E-02
RMM:   3    -0.316200934347E+03   -0.23732E-04   -0.77886E-04  4773   0.620E-02
  19 F= -.31620093E+03 E0= -.31620093E+03  d E =-.354537E-03
 BRION: g(F)=  0.754E-04 g(S)=  0.000E+00 retain N=  4 mean eig= 4.34
 eig:   7.021  7.021  0.870  2.444
 bond charge predicted
       N       E                     dE             d eps       ncg     rms          rms(c)
RMM:   1    -0.316201786212E+03   -0.87560E-03   -0.48349E-02  5120   0.430E-01    0.563E-02
RMM:   2    -0.316200862808E+03    0.92340E-03   -0.21530E-03  5751   0.148E-01    0.213E-02
RMM:   3    -0.316200860524E+03    0.22837E-05   -0.81313E-05  3046   0.243E-02
  20 F= -.31620086E+03 E0= -.31620086E+03  d E =0.738232E-04
 BRION: g(F)=  0.274E-03 g(S)=  0.000E+00 retain N=  5 mean eig= 4.16
 eig:   7.806  7.806  2.364  0.873  1.952
 bond charge predicted
       N       E                     dE             d eps       ncg     rms          rms(c)
RMM:   1    -0.316207978928E+03   -0.71161E-02   -0.33520E-01  5130   0.110E+00    0.891E-02
RMM:   2    -0.316201077331E+03    0.69016E-02   -0.14124E-02  6074   0.370E-01    0.320E-02
RMM:   3    -0.316201104019E+03   -0.26688E-04   -0.58762E-04  4460   0.522E-02
  21 F= -.31620110E+03 E0= -.31620110E+03  d E =-.243495E-03
 BRION: g(F)=  0.551E-04 g(S)=  0.000E+00 retain N=  3 mean eig= 2.23
 eig:   3.061  3.061  0.569
 reached required accuracy - stopping structural energy minimisation
 writing wavefunctions
