 running on   32 total cores
 distrk:  each k-point on   32 cores,    1 groups
 distr:  one band on    8 cores,    4 groups
 using from now: INCAR     
 vasp.5.4.1 05Feb16 (build Dec 31 2016 05:41:53) complex                        
  
 POSCAR found type information on POSCAR  O  Sn F 
 POSCAR found :  3 types and      49 ions
 scaLAPACK will be used

 ----------------------------------------------------------------------------- 
|                                                                             |
|  ADVICE TO THIS USER RUNNING 'VASP/VAMP'   (HEAR YOUR MASTER'S VOICE ...):  |
|                                                                             |
|      You have a (more or less) 'large supercell' and for larger cells       |
|      it might be more efficient to use real space projection opertators     |
|      So try LREAL= Auto  in the INCAR   file.                               |
|      Mind: At the moment your POTCAR file does not contain real space       |
|       projectors, and has to be modified,  BUT if you                       |
|      want to do an extremely  accurate calculation you might also keep the  |
|      reciprocal projection scheme          (i.e. LREAL=.FALSE.)             |
|                                                                             |
 ----------------------------------------------------------------------------- 

 LDA part: xc-table for Pade appr. of Perdew
 POSCAR, INCAR and KPOINTS ok, starting setup
 WARNING: small aliasing (wrap around) errors must be expected
 FFT: planning ...
 WAVECAR not read
 entering main loop
       N       E                     dE             d eps       ncg     rms          rms(c)
RMM:   1     0.458793361679E+02    0.45879E+02   -0.24039E+05  2560   0.237E+03
RMM:   2     0.566239475679E+03    0.52036E+03   -0.46976E+04  2560   0.435E+02
RMM:   3    -0.122927029665E+03   -0.68917E+03   -0.13239E+04  2560   0.208E+02
RMM:   4    -0.271102693052E+03   -0.14818E+03   -0.53866E+03  6224   0.162E+02
RMM:   5    -0.343306610478E+03   -0.72204E+02   -0.70330E+02  6552   0.392E+01BRMIX: very serious problems
 the old and the new charge density differ
 old charge density:   423.00000 new  423.99997
    0.420E+01
RMM:   6    -0.301208891063E+03    0.42098E+02   -0.21453E+02  6135   0.254E+01    0.167E+01
RMM:   7    -0.303232995561E+03   -0.20241E+01   -0.30463E+01  6542   0.797E+00    0.954E+00
RMM:   8    -0.303926311728E+03   -0.69332E+00   -0.91214E+00  6127   0.593E+00    0.492E+00
RMM:   9    -0.303619176241E+03    0.30714E+00   -0.94766E-01  6572   0.147E+00    0.265E+00
RMM:  10    -0.303562948110E+03    0.56228E-01   -0.17389E+00  6116   0.224E+00    0.106E+00
RMM:  11    -0.303545929645E+03    0.17018E-01   -0.11670E-01  6207   0.468E-01    0.631E-01
RMM:  12    -0.303540076761E+03    0.58529E-02   -0.50731E-02  6105   0.319E-01    0.122E-01
RMM:  13    -0.303540602965E+03   -0.52620E-03   -0.10179E-02  5503   0.751E-02    0.518E-02
RMM:  14    -0.303540755858E+03   -0.15289E-03   -0.29455E-03  3175   0.319E-02    0.358E-02
RMM:  15    -0.303540802694E+03   -0.46836E-04   -0.12759E-03  3824   0.311E-02    0.118E-02
RMM:  16    -0.303540802409E+03    0.28469E-06   -0.31980E-04  3095   0.208E-02
   1 F= -.30354080E+03 E0= -.30351546E+03  d E =-.303541E+03
 curvature:   0.00 expect dE= 0.000E+00 dE for cont linesearch  0.000E+00
 trial: gam= 0.00000 g(F)=  0.494E+01 g(S)=  0.000E+00 ort = 0.000E+00 (trialstep = 0.100E+01)
 search vector abs. value=  0.494E+01
 bond charge predicted
       N       E                     dE             d eps       ncg     rms          rms(c)
RMM:   1    -0.296839236430E+03    0.67016E+01   -0.58201E+02  5974   0.313E+01    0.187E+01
RMM:   2    -0.326106978833E+03   -0.29268E+02   -0.27076E+02  6128   0.240E+01    0.188E+01
RMM:   3    -0.313890062238E+03    0.12217E+02   -0.10888E+01  6082   0.436E+00    0.150E+01
RMM:   4    -0.307899515019E+03    0.59905E+01   -0.10933E+01  6110   0.510E+00    0.569E+00
RMM:   5    -0.307646720377E+03    0.25279E+00   -0.61934E-01  6923   0.102E+00    0.470E+00
RMM:   6    -0.307952741850E+03   -0.30602E+00   -0.44921E-01  6109   0.121E+00    0.641E+00
RMM:   7    -0.306761625918E+03    0.11911E+01   -0.29365E+00  6079   0.224E+00    0.127E+00
RMM:   8    -0.306767427391E+03   -0.58015E-02   -0.11737E-01  7036   0.442E-01    0.700E-01
RMM:   9    -0.306780694900E+03   -0.13268E-01   -0.11609E-01  5972   0.432E-01    0.138E+00
RMM:  10    -0.306759293215E+03    0.21402E-01   -0.37017E-02  6028   0.293E-01    0.193E-01
RMM:  11    -0.306762950336E+03   -0.36571E-02   -0.77769E-03  5382   0.128E-01    0.401E-01
RMM:  12    -0.306760744300E+03    0.22060E-02   -0.55868E-04  4788   0.446E-02    0.309E-01
RMM:  13    -0.306758437769E+03    0.23065E-02   -0.43508E-03  5319   0.856E-02    0.829E-02
RMM:  14    -0.306758416312E+03    0.21457E-04   -0.43473E-04  4216   0.271E-02
   2 F= -.30675842E+03 E0= -.30675077E+03  d E =-.321761E+01
 trial-energy change:   -3.217614  1 .order   -3.256998   -4.938562   -1.575434
 step:   1.5246(harm=  1.4684)  dis= 0.43346  next Energy=  -307.166002 (dE=-0.363E+01)
 bond charge predicted
       N       E                     dE             d eps       ncg     rms          rms(c)
RMM:   1    -0.315162282313E+03   -0.84038E+01   -0.35982E+02  5202   0.211E+01    0.139E+01
RMM:   2    -0.314592927545E+03    0.56935E+00   -0.91861E+01  6114   0.205E+01    0.144E+01
RMM:   3    -0.309330505518E+03    0.52624E+01   -0.26817E+00  6052   0.271E+00    0.904E+00
RMM:   4    -0.307248861938E+03    0.20816E+01   -0.51243E+00  6107   0.324E+00    0.244E+00
RMM:   5    -0.307386882315E+03   -0.13802E+00   -0.12176E-01  6652   0.673E-01    0.307E+00
RMM:   6    -0.307306266452E+03    0.80616E-01   -0.48607E-02  6070   0.389E-01    0.292E+00
RMM:   7    -0.307076301671E+03    0.22996E+00   -0.77361E-01  6063   0.109E+00    0.190E-01
RMM:   8    -0.307078888539E+03   -0.25869E-02   -0.37271E-02  6737   0.226E-01    0.184E-01
RMM:   9    -0.307078403398E+03    0.48514E-03   -0.10887E-03  4824   0.666E-02    0.100E-01
RMM:  10    -0.307078419879E+03   -0.16482E-04   -0.17182E-03  4945   0.622E-02    0.646E-02
RMM:  11    -0.307078316518E+03    0.10336E-03   -0.11112E-04  3197   0.211E-02    0.315E-02
RMM:  12    -0.307078296474E+03    0.20044E-04   -0.80680E-05  3073   0.142E-02
   3 F= -.30707830E+03 E0= -.30707770E+03  d E =-.353749E+01
 curvature:  -0.72 expect dE=-0.163E+01 dE for cont linesearch -0.131E-01
 trial: gam= 0.51710 g(F)=  0.226E+01 g(S)=  0.000E+00 ort =-0.298E+00 (trialstep = 0.110E+01)
 search vector abs. value=  0.327E+01
 bond charge predicted
       N       E                     dE             d eps       ncg     rms          rms(c)
RMM:   1    -0.312534785341E+03   -0.54565E+01   -0.10183E+03  5988   0.629E+01    0.176E+01
RMM:   2    -0.314848664230E+03   -0.23139E+01   -0.12890E+02  6123   0.271E+01    0.153E+01
RMM:   3    -0.309163958540E+03    0.56847E+01   -0.74129E+00  6799   0.565E+00    0.964E+00
RMM:   4    -0.307183384658E+03    0.19806E+01   -0.51884E+00  6146   0.361E+00    0.322E+00
RMM:   5    -0.307114567982E+03    0.68817E-01   -0.29807E-01  6501   0.863E-01    0.226E+00
RMM:   6    -0.307057896143E+03    0.56672E-01   -0.13089E-01  6064   0.638E-01    0.113E+00
RMM:   7    -0.307041003788E+03    0.16892E-01   -0.14594E-01  6202   0.569E-01    0.238E-01
RMM:   8    -0.307039404110E+03    0.15997E-02   -0.42934E-03  5865   0.135E-01    0.129E-01
RMM:   9    -0.307039392075E+03    0.12034E-04   -0.74841E-04  5059   0.559E-02
   4 F= -.30703939E+03 E0= -.30703939E+03  d E =0.389044E-01
 trial-energy change:    0.038904  1 .order    0.019227   -2.321363    2.359817
 step:   0.5410(harm=  0.5479)  dis= 0.06703  next Energy=  -307.644245 (dE=-0.566E+00)
 bond charge predicted
       N       E                     dE             d eps       ncg     rms          rms(c)
RMM:   1    -0.315564372358E+03   -0.85250E+01   -0.34814E+02  5486   0.335E+01    0.453E+00
RMM:   2    -0.307880272202E+03    0.76841E+01   -0.18888E+01  6110   0.133E+01    0.312E+00
RMM:   3    -0.307707116381E+03    0.17316E+00   -0.11851E+00  6863   0.228E+00    0.183E+00
RMM:   4    -0.307663893047E+03    0.43223E-01   -0.92666E-02  6059   0.654E-01    0.982E-01
RMM:   5    -0.307644651409E+03    0.19242E-01   -0.87511E-02  6020   0.514E-01    0.210E-01
RMM:   6    -0.307643894437E+03    0.75697E-03   -0.78004E-03  6550   0.176E-01    0.955E-02
RMM:   7    -0.307643823451E+03    0.70985E-04   -0.95673E-04  5109   0.656E-02
   5 F= -.30764382E+03 E0= -.30764382E+03  d E =-.565527E+00
 curvature:  -0.43 expect dE=-0.254E+00 dE for cont linesearch -0.263E-07
 trial: gam= 0.05734 g(F)=  0.595E+00 g(S)=  0.000E+00 ort =-0.449E-03 (trialstep = 0.992E+00)
 search vector abs. value=  0.606E+00
 bond charge predicted
       N       E                     dE             d eps       ncg     rms          rms(c)
RMM:   1    -0.315279104369E+03   -0.76352E+01   -0.23224E+02  5351   0.265E+01    0.295E+00
RMM:   2    -0.307954715074E+03    0.73244E+01   -0.14528E+01  6110   0.122E+01    0.159E+00
RMM:   3    -0.307942387941E+03    0.12327E-01   -0.62384E-01  6831   0.170E+00    0.111E+00
RMM:   4    -0.307938541310E+03    0.38466E-02   -0.21698E-02  6085   0.372E-01    0.755E-01
RMM:   5    -0.307935056570E+03    0.34847E-02   -0.19416E-02  6032   0.294E-01    0.852E-02
RMM:   6    -0.307935057714E+03   -0.11436E-05   -0.21997E-03  6175   0.992E-02    0.650E-02
RMM:   7    -0.307935012153E+03    0.45560E-04   -0.24772E-04  3851   0.357E-02
   6 F= -.30793501E+03 E0= -.30793501E+03  d E =-.291189E+00
 trial-energy change:   -0.291189  1 .order   -0.286578   -0.590433    0.017278
 step:   0.9651(harm=  0.9639)  dis= 0.05972  next Energy=  -307.935247 (dE=-0.291E+00)
 bond charge predicted
       N       E                     dE             d eps       ncg     rms          rms(c)
RMM:   1    -0.307941333531E+03   -0.62758E-02   -0.17817E-01  5268   0.713E-01    0.761E-02
RMM:   2    -0.307935178191E+03    0.61553E-02   -0.11289E-02  5795   0.325E-01    0.273E-02
RMM:   3    -0.307935185482E+03   -0.72903E-05   -0.37666E-04  3741   0.436E-02
   7 F= -.30793519E+03 E0= -.30793519E+03  d E =-.291362E+00
 curvature:  -0.49 expect dE=-0.864E-01 dE for cont linesearch -0.308E-04
 trial: gam= 0.28407 g(F)=  0.176E+00 g(S)=  0.000E+00 ort = 0.618E-02 (trialstep = 0.987E+00)
 search vector abs. value=  0.229E+00
 bond charge predicted
       N       E                     dE             d eps       ncg     rms          rms(c)
RMM:   1    -0.309821067541E+03   -0.18859E+01   -0.77015E+01  5369   0.161E+01    0.180E+00
RMM:   2    -0.307980051996E+03    0.18410E+01   -0.45369E+00  6108   0.679E+00    0.639E-01
RMM:   3    -0.307993663876E+03   -0.13612E-01   -0.26363E-01  6859   0.105E+00    0.703E-01
RMM:   4    -0.307993467852E+03    0.19602E-03   -0.70217E-03  6182   0.203E-01    0.526E-01
RMM:   5    -0.307992098641E+03    0.13692E-02   -0.45577E-03  6059   0.155E-01    0.106E-01
RMM:   6    -0.307991933058E+03    0.16558E-03   -0.13224E-03  5563   0.846E-02    0.151E-01
RMM:   7    -0.307991933603E+03   -0.54524E-06   -0.15497E-04  3115   0.298E-02
   8 F= -.30799193E+03 E0= -.30799193E+03  d E =-.567481E-01
 trial-energy change:   -0.056748  1 .order   -0.056088   -0.175870    0.063693
 step:   0.7275(harm=  0.7244)  dis= 0.02651  next Energy=  -308.000287 (dE=-0.651E-01)
 bond charge predicted
       N       E                     dE             d eps       ncg     rms          rms(c)
RMM:   1    -0.308134293624E+03   -0.14236E+00   -0.53752E+00  5325   0.416E+00    0.495E-01
RMM:   2    -0.307999329542E+03    0.13496E+00   -0.31223E-01  6109   0.170E+00    0.166E-01
RMM:   3    -0.308000103476E+03   -0.77393E-03   -0.15454E-02  6860   0.256E-01    0.152E-01
RMM:   4    -0.308000099477E+03    0.39991E-05   -0.35066E-04  3726   0.410E-02
   9 F= -.30800010E+03 E0= -.30800010E+03  d E =-.649140E-01
 curvature:  -0.47 expect dE=-0.212E-01 dE for cont linesearch -0.645E-06
 trial: gam= 0.23612 g(F)=  0.456E-01 g(S)=  0.000E+00 ort = 0.564E-03 (trialstep = 0.935E+00)
 search vector abs. value=  0.587E-01
 bond charge predicted
       N       E                     dE             d eps       ncg     rms          rms(c)
RMM:   1    -0.308760508283E+03   -0.76040E+00   -0.21016E+01  5123   0.788E+00    0.684E-01
RMM:   2    -0.308024293589E+03    0.73621E+00   -0.13280E+00  6110   0.378E+00    0.248E-01
RMM:   3    -0.308025100030E+03   -0.80644E-03   -0.35911E-02  6839   0.436E-01    0.272E-01
RMM:   4    -0.308025080238E+03    0.19792E-04   -0.79685E-04  5031   0.687E-02
  10 F= -.30802508E+03 E0= -.30802508E+03  d E =-.249808E-01
 trial-energy change:   -0.024981  1 .order   -0.025430   -0.042797   -0.008064
 step:   1.1754(harm=  1.1520)  dis= 0.01245  next Energy=  -308.026110 (dE=-0.260E-01)
 bond charge predicted
       N       E                     dE             d eps       ncg     rms          rms(c)
RMM:   1    -0.308073206386E+03   -0.48106E-01   -0.13618E+00  5122   0.202E+00    0.213E-01
RMM:   2    -0.308025901839E+03    0.47305E-01   -0.85419E-02  6110   0.952E-01    0.747E-02
RMM:   3    -0.308025969892E+03   -0.68053E-04   -0.24389E-03  6183   0.113E-01    0.578E-02
RMM:   4    -0.308025968673E+03    0.12184E-05   -0.10517E-04  3095   0.254E-02
  11 F= -.30802597E+03 E0= -.30802597E+03  d E =-.258692E-01
 curvature:  -0.73 expect dE=-0.165E-01 dE for cont linesearch -0.121E-04
 trial: gam= 0.50702 g(F)=  0.226E-01 g(S)=  0.000E+00 ort =-0.988E-03 (trialstep = 0.983E+00)
 search vector abs. value=  0.367E-01
 bond charge predicted
       N       E                     dE             d eps       ncg     rms          rms(c)
RMM:   1    -0.308493630614E+03   -0.46766E+00   -0.13992E+01  5122   0.646E+00    0.533E-01
RMM:   2    -0.308037045489E+03    0.45659E+00   -0.79179E-01  6110   0.289E+00    0.198E-01
RMM:   3    -0.308037008802E+03    0.36687E-04   -0.18804E-02  6814   0.323E-01    0.171E-01
RMM:   4    -0.308036966367E+03    0.42435E-04   -0.56391E-04  4807   0.549E-02
  12 F= -.30803697E+03 E0= -.30803697E+03  d E =-.109977E-01
 trial-energy change:   -0.010998  1 .order   -0.010965   -0.021712   -0.000219
 step:   0.9930(harm=  0.9930)  dis= 0.01171  next Energy=  -308.036935 (dE=-0.110E-01)
 bond charge predicted
       N       E                     dE             d eps       ncg     rms          rms(c)
RMM:   1    -0.308036909044E+03    0.99758E-04   -0.97111E-04  5575   0.703E-02    0.166E-02
RMM:   2    -0.308036907831E+03    0.12136E-05   -0.64338E-05  3040   0.224E-02
  13 F= -.30803691E+03 E0= -.30803691E+03  d E =-.109392E-01
 curvature:  -0.82 expect dE=-0.843E-02 dE for cont linesearch -0.123E-04
 trial: gam= 0.44977 g(F)=  0.102E-01 g(S)=  0.000E+00 ort =-0.741E-03 (trialstep = 0.985E+00)
 search vector abs. value=  0.170E-01
 bond charge predicted
       N       E                     dE             d eps       ncg     rms          rms(c)
RMM:   1    -0.308222515908E+03   -0.18561E+00   -0.61729E+00  5120   0.440E+00    0.372E-01
RMM:   2    -0.308043109370E+03    0.17941E+00   -0.32657E-01  6110   0.185E+00    0.137E-01
RMM:   3    -0.308043306387E+03   -0.19702E-03   -0.93976E-03  6737   0.217E-01    0.127E-01
RMM:   4    -0.308043300880E+03    0.55070E-05   -0.29999E-04  3646   0.372E-02
  14 F= -.30804330E+03 E0= -.30804330E+03  d E =-.639305E-02
 trial-energy change:   -0.006393  1 .order   -0.006221   -0.009743   -0.002698
 step:   1.3623(harm=  1.3623)  dis= 0.00951  next Energy=  -308.043645 (dE=-0.674E-02)
 bond charge predicted
       N       E                     dE             d eps       ncg     rms          rms(c)
RMM:   1    -0.308071562633E+03   -0.28256E-01   -0.91308E-01  5120   0.168E+00    0.158E-01
RMM:   2    -0.308043829699E+03    0.27733E-01   -0.50117E-02  6110   0.722E-01    0.585E-02
RMM:   3    -0.308043858727E+03   -0.29028E-04   -0.14471E-03  5657   0.853E-02    0.424E-02
RMM:   4    -0.308043856066E+03    0.26604E-05   -0.86944E-05  3151   0.247E-02
  15 F= -.30804386E+03 E0= -.30804386E+03  d E =-.694824E-02
 curvature:  -1.17 expect dE=-0.752E-02 dE for cont linesearch -0.707E-06
 trial: gam= 0.61523 g(F)=  0.643E-02 g(S)=  0.000E+00 ort =-0.101E-03 (trialstep = 0.106E+01)
 search vector abs. value=  0.127E-01
 bond charge predicted
       N       E                     dE             d eps       ncg     rms          rms(c)
RMM:   1    -0.308163714534E+03   -0.11986E+00   -0.48703E+00  5120   0.417E+00    0.371E-01
RMM:   2    -0.308048242099E+03    0.11547E+00   -0.25046E-01  6110   0.164E+00    0.119E-01
RMM:   3    -0.308048929194E+03   -0.68710E-03   -0.10923E-02  6708   0.228E-01    0.146E-01
RMM:   4    -0.308048952402E+03   -0.23208E-04   -0.29917E-04  3399   0.394E-02
  16 F= -.30804895E+03 E0= -.30804895E+03  d E =-.509634E-02
 trial-energy change:   -0.005096  1 .order   -0.004722   -0.006757   -0.002688
 step:   1.7610(harm=  1.7610)  dis= 0.00914  next Energy=  -308.049466 (dE=-0.561E-02)
 reached required accuracy - stopping structural energy minimisation
 writing wavefunctions
