 running on   32 total cores
 distrk:  each k-point on   32 cores,    1 groups
 distr:  one band on    8 cores,    4 groups
 using from now: INCAR     
 vasp.5.4.1 05Feb16 (build Dec 31 2016 05:41:53) complex                        
  
 POSCAR found type information on POSCAR  O  Sn
 POSCAR found :  2 types and      47 ions
 scaLAPACK will be used

 ----------------------------------------------------------------------------- 
|                                                                             |
|  ADVICE TO THIS USER RUNNING 'VASP/VAMP'   (HEAR YOUR MASTER'S VOICE ...):  |
|                                                                             |
|      You have a (more or less) 'large supercell' and for larger cells       |
|      it might be more efficient to use real space projection opertators     |
|      So try LREAL= Auto  in the INCAR   file.                               |
|      Mind: At the moment your POTCAR file does not contain real space       |
|       projectors, and has to be modified,  BUT if you                       |
|      want to do an extremely  accurate calculation you might also keep the  |
|      reciprocal projection scheme          (i.e. LREAL=.FALSE.)             |
|                                                                             |
 ----------------------------------------------------------------------------- 

 LDA part: xc-table for Pade appr. of Perdew
 POSCAR, INCAR and KPOINTS ok, starting setup
 WARNING: small aliasing (wrap around) errors must be expected
 FFT: planning ...
 WAVECAR not read
 entering main loop
       N       E                     dE             d eps       ncg     rms          rms(c)
RMM:   1     0.216515753533E+02    0.21652E+02   -0.22849E+05  1952   0.233E+03
RMM:   2     0.554199161457E+03    0.53255E+03   -0.44487E+04  1952   0.430E+02
RMM:   3    -0.111577447198E+03   -0.66578E+03   -0.12576E+04  1952   0.208E+02
RMM:   4    -0.275450487551E+03   -0.16387E+03   -0.49012E+03  4725   0.157E+02
RMM:   5    -0.327620292388E+03   -0.52170E+02   -0.57782E+02  5017   0.389E+01BRMIX: very serious problems
 the old and the new charge density differ
 old charge density:   402.00000 new  402.99996
    0.397E+01
RMM:   6    -0.289632525235E+03    0.37988E+02   -0.18642E+02  4680   0.249E+01    0.166E+01
RMM:   7    -0.291790905581E+03   -0.21584E+01   -0.37380E+01  5098   0.860E+00    0.940E+00
RMM:   8    -0.292019056502E+03   -0.22815E+00   -0.49385E+00  4718   0.443E+00    0.593E+00
RMM:   9    -0.292516856076E+03   -0.49780E+00   -0.17328E+00  4793   0.225E+00    0.101E+01
RMM:  10    -0.291871443541E+03    0.64541E+00   -0.52882E-01  4675   0.132E+00    0.208E+00
RMM:  11    -0.291863661476E+03    0.77821E-02   -0.25688E-01  4689   0.985E-01    0.638E-01
RMM:  12    -0.291867422507E+03   -0.37610E-02   -0.37199E-02  4633   0.342E-01    0.301E-01
RMM:  13    -0.291867119514E+03    0.30299E-03   -0.47804E-03  4412   0.138E-01    0.166E-01
RMM:  14    -0.291867090273E+03    0.29241E-04   -0.11371E-03  3887   0.614E-02    0.551E-02
RMM:  15    -0.291867130513E+03   -0.40240E-04   -0.32982E-04  3497   0.379E-02
   1 F= -.29186713E+03 E0= -.29180402E+03  d E =-.291867E+03
 BRION: g(F)=  0.107E+01 g(S)=  0.000E+00
 bond charge predicted
       N       E                     dE             d eps       ncg     rms          rms(c)
RMM:   1    -0.296740978680E+03   -0.48739E+01   -0.32492E+02  4335   0.343E+01    0.520E+00
RMM:   2    -0.292126227270E+03    0.46148E+01   -0.15461E+01  4668   0.109E+01    0.291E+00
RMM:   3    -0.292343722607E+03   -0.21750E+00   -0.17555E+00  5155   0.252E+00    0.589E+00
RMM:   4    -0.292190064777E+03    0.15366E+00   -0.20390E-01  4665   0.937E-01    0.243E+00
RMM:   5    -0.292171869726E+03    0.18195E-01   -0.27263E-02  4611   0.381E-01    0.157E+00
RMM:   6    -0.292164144539E+03    0.77252E-02   -0.11876E-02  4574   0.251E-01    0.959E-01
RMM:   7    -0.292159320704E+03    0.48238E-02   -0.30271E-02  4568   0.357E-01    0.506E-01
RMM:   8    -0.292157648138E+03    0.16726E-02   -0.30683E-03  4589   0.117E-01    0.237E-01
RMM:   9    -0.292157345918E+03    0.30222E-03   -0.47699E-04  3357   0.443E-02    0.698E-02
RMM:  10    -0.292157380674E+03   -0.34756E-04   -0.12753E-04  2407   0.274E-02
   2 F= -.29215738E+03 E0= -.29209217E+03  d E =-.290250E+00
 BRION: g(F)=  0.578E+00 g(S)=  0.000E+00 retain N=  1 mean eig= 0.60
 eig:   0.600
 bond charge predicted
       N       E                     dE             d eps       ncg     rms          rms(c)
RMM:   1    -0.293222383559E+03   -0.10650E+01   -0.64285E+01  4374   0.152E+01    0.204E+00
RMM:   2    -0.292362593502E+03    0.85979E+00   -0.29937E+00  4669   0.468E+00    0.164E+00
RMM:   3    -0.292363079521E+03   -0.48602E-03   -0.25035E-01  5221   0.984E-01    0.195E+00
RMM:   4    -0.292349394873E+03    0.13685E-01   -0.24130E-02  4559   0.313E-01    0.111E+00
RMM:   5    -0.292342375080E+03    0.70198E-02   -0.69281E-03  4433   0.175E-01    0.499E-01
RMM:   6    -0.292342105442E+03    0.26964E-03   -0.38776E-03  4466   0.134E-01    0.355E-01
RMM:   7    -0.292341422228E+03    0.68321E-03   -0.13488E-03  4196   0.812E-02    0.723E-02
RMM:   8    -0.292341442017E+03   -0.19790E-04   -0.14653E-04  2468   0.288E-02
   3 F= -.29234144E+03 E0= -.29227728E+03  d E =-.184061E+00
 BRION: g(F)=  0.568E-01 g(S)=  0.000E+00 retain N=  2 mean eig= 1.90
 eig:   0.456  3.349
 bond charge predicted
       N       E                     dE             d eps       ncg     rms          rms(c)
RMM:   1    -0.293583681518E+03   -0.12423E+01   -0.35795E+01  3932   0.822E+00    0.803E-01
RMM:   2    -0.292486761441E+03    0.10969E+01   -0.19597E+00  4672   0.385E+00    0.390E+00
RMM:   3    -0.292396283696E+03    0.90478E-01   -0.42247E-02  4931   0.473E-01    0.814E-01
RMM:   4    -0.292397989430E+03   -0.17057E-02   -0.58259E-03  4216   0.154E-01    0.549E-01
RMM:   5    -0.292396811538E+03    0.11779E-02   -0.30535E-03  4210   0.108E-01    0.288E-01
RMM:   6    -0.292396128050E+03    0.68349E-03   -0.34607E-03  3954   0.983E-02    0.681E-02
RMM:   7    -0.292396111555E+03    0.16494E-04   -0.22955E-04  2931   0.320E-02
   4 F= -.29239611E+03 E0= -.29233234E+03  d E =-.546695E-01
 BRION: g(F)=  0.250E-01 g(S)=  0.000E+00 retain N=  3 mean eig= 1.68
 eig:   3.289  0.206  1.555
 bond charge predicted
       N       E                     dE             d eps       ncg     rms          rms(c)
RMM:   1    -0.292958349462E+03   -0.56222E+00   -0.20191E+01  3923   0.692E+00    0.104E+00
RMM:   2    -0.292573181287E+03    0.38517E+00   -0.10493E+00  4670   0.294E+00    0.532E+00
RMM:   3    -0.292416154315E+03    0.15703E+00   -0.61434E-02  4891   0.524E-01    0.500E-01
RMM:   4    -0.292425370433E+03   -0.92161E-02   -0.96104E-03  4313   0.202E-01    0.261E-01
RMM:   5    -0.292425169886E+03    0.20055E-03   -0.15889E-03  4031   0.833E-02    0.109E-01
RMM:   6    -0.292425174580E+03   -0.46935E-05   -0.29598E-04  3117   0.382E-02
   5 F= -.29242517E+03 E0= -.29236260E+03  d E =-.290630E-01
 BRION: g(F)=  0.128E-01 g(S)=  0.000E+00 retain N=  4 mean eig= 2.58
 eig:   6.009  0.213  2.044  2.044
 bond charge predicted
       N       E                     dE             d eps       ncg     rms          rms(c)
RMM:   1    -0.293183886066E+03   -0.75872E+00   -0.26785E+01  3904   0.811E+00    0.953E-01
RMM:   2    -0.292574646217E+03    0.60924E+00   -0.13527E+00  4671   0.335E+00    0.500E+00
RMM:   3    -0.292439284604E+03    0.13536E+00   -0.54507E-02  4999   0.521E-01    0.590E-01
RMM:   4    -0.292446928454E+03   -0.76438E-02   -0.97367E-03  4379   0.199E-01    0.357E-01
RMM:   5    -0.292446469404E+03    0.45905E-03   -0.22629E-03  4145   0.963E-02    0.126E-01
RMM:   6    -0.292446505714E+03   -0.36310E-04   -0.50198E-04  3626   0.468E-02
   6 F= -.29244651E+03 E0= -.29238498E+03  d E =-.213311E-01
 BRION: g(F)=  0.569E-02 g(S)=  0.000E+00 retain N=  5 mean eig= 3.61
 eig:   5.492  5.500  5.500  0.225  1.335
 bond charge predicted
       N       E                     dE             d eps       ncg     rms          rms(c)
RMM:   1    -0.292685473996E+03   -0.23900E+00   -0.94918E+00  3905   0.508E+00    0.404E-01
RMM:   2    -0.292460080504E+03    0.22539E+00   -0.40534E-01  4670   0.193E+00    0.878E-01
RMM:   3    -0.292455279718E+03    0.48008E-02   -0.12210E-02  4793   0.244E-01    0.257E-01
RMM:   4    -0.292454958773E+03    0.32094E-03   -0.13788E-03  4124   0.831E-02    0.117E-01
RMM:   5    -0.292454891629E+03    0.67144E-04   -0.29148E-04  3150   0.370E-02
   7 F= -.29245489E+03 E0= -.29239387E+03  d E =-.838591E-02
 BRION: g(F)=  0.296E-02 g(S)=  0.000E+00 retain N=  3 mean eig= 3.57
 eig:   4.712  4.712  1.290
 bond charge predicted
       N       E                     dE             d eps       ncg     rms          rms(c)
RMM:   1    -0.292519748997E+03   -0.64790E-01   -0.29224E+00  3904   0.290E+00    0.248E-01
RMM:   2    -0.292460628220E+03    0.59121E-01   -0.11470E-01  4613   0.104E+00    0.604E-01
RMM:   3    -0.292458562916E+03    0.20653E-02   -0.46332E-03  4408   0.145E-01    0.173E-01
RMM:   4    -0.292458493357E+03    0.69559E-04   -0.43003E-04  3435   0.483E-02
   8 F= -.29245849E+03 E0= -.29239783E+03  d E =-.360173E-02
 BRION: g(F)=  0.182E-02 g(S)=  0.000E+00 retain N=  3 mean eig= 3.43
 eig:   4.524  4.524  1.237
 bond charge predicted
       N       E                     dE             d eps       ncg     rms          rms(c)
RMM:   1    -0.292558567430E+03   -0.10000E+00   -0.37453E+00  3905   0.308E+00    0.211E-01
RMM:   2    -0.292461971133E+03    0.96596E-01   -0.15200E-01  4603   0.117E+00    0.230E-01
RMM:   3    -0.292461794229E+03    0.17690E-03   -0.31068E-03  4262   0.125E-01    0.282E-01
RMM:   4    -0.292461359058E+03    0.43517E-03   -0.57316E-04  3691   0.499E-02    0.105E-01
RMM:   5    -0.292461302774E+03    0.56285E-04   -0.20622E-04  2736   0.293E-02
   9 F= -.29246130E+03 E0= -.29240057E+03  d E =-.280942E-02
 BRION: g(F)=  0.103E-02 g(S)=  0.000E+00 retain N=  4 mean eig= 4.64
 eig:   7.687  7.687  1.589  1.589
 bond charge predicted
       N       E                     dE             d eps       ncg     rms          rms(c)
RMM:   1    -0.292542809828E+03   -0.81451E-01   -0.33738E+00  3904   0.302E+00    0.203E-01
RMM:   2    -0.292465060068E+03    0.77750E-01   -0.12748E-01  4622   0.109E+00    0.501E-01
RMM:   3    -0.292463328385E+03    0.17317E-02   -0.32695E-03  4318   0.123E-01    0.141E-01
RMM:   4    -0.292463294463E+03    0.33922E-04   -0.37063E-04  3374   0.442E-02
  10 F= -.29246329E+03 E0= -.29240263E+03  d E =-.199169E-02
 BRION: g(F)=  0.484E-03 g(S)=  0.000E+00 retain N=  4 mean eig= 3.92
 eig:   6.346  6.346  1.490  1.490
 reached required accuracy - stopping structural energy minimisation
 writing wavefunctions
