 vasp.5.4.1 05Feb16 (build Dec 31 2016 05:41:53) complex                        
  
 executed on           IFC91_ompi date 2017.08.16  08:25:15
 running on   32 total cores
 distrk:  each k-point on   32 cores,    1 groups
 distr:  one band on NCORES_PER_BAND=   8 cores,    4 groups


--------------------------------------------------------------------------------------------------------


 INCAR:
 POTCAR:    PAW_PBE O 08Apr2002                   
 POTCAR:    PAW_PBE Sn_d 06Sep2000                
 POTCAR:    PAW_PBE O 08Apr2002                   
   VRHFIN =O: s2p4                                                              
   LEXCH  = PE                                                                  
   EATOM  =   432.3788 eV,   31.7789 Ry                                         
                                                                                
   TITEL  = PAW_PBE O 08Apr2002                                                 
   LULTRA =        F    use ultrasoft PP ?                                      
   IUNSCR =        1    unscreen: 0-lin 1-nonlin 2-no                           
   RPACOR =    1.200    partial core radius                                     
   POMASS =   16.000; ZVAL   =    6.000    mass and valenz                      
   RCORE  =    1.520    outmost cutoff radius                                   
   RWIGS  =    1.550; RWIGS  =    0.820    wigner-seitz radius (au A)           
   ENMAX  =  400.000; ENMIN  =  300.000 eV                                      
   ICORE  =        2    local potential                                         
   LCOR   =        T    correct aug charges                                     
   LPAW   =        T    paw PP                                                  
   EAUG   =  605.392                                                            
   DEXC   =    0.000                                                            
   RMAX   =    1.553    core radius for proj-oper                               
   RAUG   =    1.300    factor for augmentation sphere                          
   RDEP   =    1.550    radius for radial grids                                 
   RDEPT  =    1.329    core radius for aug-charge                              
                                                                                
   Atomic configuration                                                         
    4 entries                                                                   
     n  l   j            E        occ.                                          
     1  0  0.50      -514.6923   2.0000                                         
     2  0  0.50       -23.9615   2.0000                                         
     2  1  0.50        -9.0305   4.0000                                         
     3  2  1.50        -9.5241   0.0000                                         
   Description                                                                  
     l       E           TYP  RCUT    TYP  RCUT                                 
     0    -23.9615318     23  1.200                                             
     0     -9.5240782     23  1.200                                             
     1     -9.0304911     23  1.520                                             
     1      8.1634956     23  1.520                                             
     2     -9.5240782      7  1.500                                             
  local pseudopotential read in
  partial core-charges read in
  partial kinetic energy density read in
  kinetic energy density of atom read in
  atomic valenz-charges read in
  non local Contribution for L=           0  read in
    real space projection operators read in
  non local Contribution for L=           0  read in
    real space projection operators read in
  non local Contribution for L=           1  read in
    real space projection operators read in
  non local Contribution for L=           1  read in
    real space projection operators read in
    PAW grid and wavefunctions read in
 
   number of l-projection  operators is LMAX  =           4
   number of lm-projection operators is LMMAX =           8
 
 POTCAR:    PAW_PBE Sn_d 06Sep2000                
   VRHFIN =Sn: s2p2                                                             
   LEXCH  = PE                                                                  
   EATOM  =  1893.1092 eV,  139.1396 Ry                                         
                                                                                
   TITEL  = PAW_PBE Sn_d 06Sep2000                                              
   LULTRA =        F    use ultrasoft PP ?                                      
   IUNSCR =        1    unscreen: 0-lin 1-nonlin 2-no                           
   RPACOR =    2.300    partial core radius                                     
   POMASS =  118.710; ZVAL   =   14.000    mass and valenz                      
   RCORE  =    2.500    outmost cutoff radius                                   
   RWIGS  =    2.960; RWIGS  =    1.566    wigner-seitz radius (au A)           
   ENMAX  =  241.083; ENMIN  =  180.812 eV                                      
   ICORE  =        3    local potential                                         
   LCOR   =        T    correct aug charges                                     
   LPAW   =        T    paw PP                                                  
   EAUG   =  439.825                                                            
   DEXC   =    0.000                                                            
   RMAX   =    2.560    core radius for proj-oper                               
   RAUG   =    1.300    factor for augmentation sphere                          
   RDEP   =    2.659    radius for radial grids                                 
   RDEPT  =    2.046    core radius for aug-charge                              
                                                                                
   Atomic configuration                                                         
   12 entries                                                                   
     n  l   j            E        occ.                                          
     1  0  0.50    -29007.2859   2.0000                                         
     2  0  0.50     -4378.8056   2.0000                                         
     2  1  1.50     -3930.4293   6.0000                                         
     3  0  0.50      -845.0264   2.0000                                         
     3  1  1.50      -698.5725   6.0000                                         
     3  2  2.50      -473.2839  10.0000                                         
     4  0  0.50      -133.9036   2.0000                                         
     4  1  1.50       -89.6752   6.0000                                         
     4  2  2.50       -25.8375  10.0000                                         
     5  0  0.50       -10.5484   2.0000                                         
     5  1  0.50        -3.6940   2.0000                                         
     4  3  2.50        -2.7416   0.0000                                         
   Description                                                                  
     l       E           TYP  RCUT    TYP  RCUT                                 
     2    -25.8374624     23  2.500                                             
     2     -5.4423304     23  2.500                                             
     0    -10.5483727     23  2.500                                             
     0     13.6058260     23  2.500                                             
     1     -3.6939829     23  2.500                                             
     1      1.9821976     23  2.500                                             
     3     -1.3605826      7  2.500                                             
  local pseudopotential read in
  partial core-charges read in
  partial kinetic energy density read in
  atomic valenz-charges read in
  non local Contribution for L=           2  read in
    real space projection operators read in
  non local Contribution for L=           2  read in
    real space projection operators read in
  non local Contribution for L=           0  read in
    real space projection operators read in
  non local Contribution for L=           0  read in
    real space projection operators read in
  non local Contribution for L=           1  read in
    real space projection operators read in
  non local Contribution for L=           1  read in
    real space projection operators read in
    PAW grid and wavefunctions read in
 
   number of l-projection  operators is LMAX  =           6
   number of lm-projection operators is LMMAX =          18
 

 ----------------------------------------------------------------------------- 
|                                                                             |
|  ADVICE TO THIS USER RUNNING 'VASP/VAMP'   (HEAR YOUR MASTER'S VOICE ...):  |
|                                                                             |
|      You have a (more or less) 'large supercell' and for larger cells       |
|      it might be more efficient to use real space projection opertators     |
|      So try LREAL= Auto  in the INCAR   file.                               |
|      Mind: At the moment your POTCAR file does not contain real space       |
|       projectors, and has to be modified,  BUT if you                       |
|      want to do an extremely  accurate calculation you might also keep the  |
|      reciprocal projection scheme          (i.e. LREAL=.FALSE.)             |
|                                                                             |
 ----------------------------------------------------------------------------- 

  PAW_PBE O 08Apr2002                   :
 energy of atom  1       EATOM= -432.3788
 kinetic energy error for atom=    0.0258 (will be added to EATOM!!)
  PAW_PBE Sn_d 06Sep2000                :
 energy of atom  2       EATOM=-1893.1092
 kinetic energy error for atom=    0.0038 (will be added to EATOM!!)
 
 
 POSCAR: SnO2                                    
  positions in direct lattice
  velocities in cartesian coordinates
 exchange correlation table for  LEXCH =        8
   RHO(1)=    0.500       N(1)  =     2000
   RHO(2)=  100.500       N(2)  =     4000
 


--------------------------------------------------------------------------------------------------------


 ion  position               nearest neighbor table
   1  0.097  0.903  0.750-  40 2.04  36 2.04
   2  0.403  0.597  0.750-  40 2.04  33 2.04  47 2.04
   3  0.903  0.597  0.750-  34 2.04  38 2.04  43 2.04
   4  0.653  0.153  0.000-  46 2.04  45 2.04  41 2.04
   5  0.847  0.347  0.000-  43 2.04  41 2.04  45 2.04
   6  0.903  0.097  0.250-  45 2.04  36 2.04
   7  0.597  0.403  0.250-  45 2.04  33 2.04  47 2.04
   8  0.653  0.153  0.500-  42 2.04  41 2.04  45 2.04
   9  0.347  0.847  0.500-  42 2.04  40 2.04  44 2.04
  10  0.847  0.347  0.500-  38 2.04  41 2.04  45 2.04
  11  0.597  0.403  0.750-  41 2.04  33 2.04  47 2.04
  12  0.653  0.653  0.000-  47 2.04  37 2.04  34 2.04
  13  0.847  0.847  0.000-  34 2.04  37 2.04
  14  0.903  0.597  0.250-  37 2.04  38 2.04  43 2.04
  15  0.597  0.903  0.250-  37 2.04  42 2.04  46 2.04
  16  0.653  0.653  0.500-  33 2.04  34 2.04  37 2.04
  17  0.847  0.847  0.500-  36 2.04  34 2.04  37 2.04
  18  0.903  0.097  0.750-  41 2.04  36 2.04
  19  0.153  0.653  0.500-  38 2.04  40 2.04  44 2.04
  20  0.597  0.903  0.750-  34 2.04  42 2.04  46 2.04
  21  0.347  0.347  0.500-  33 2.04  35 2.04  39 2.04
  22  0.097  0.903  0.250-  44 2.04  36 2.04
  23  0.403  0.597  0.250-  44 2.04  33 2.04  47 2.04
  24  0.347  0.847  0.000-  46 2.04  44 2.04  40 2.04
  25  0.153  0.153  0.500-  36 2.04  35 2.04  39 2.04
  26  0.153  0.153  0.000-  35 2.04  39 2.04
  27  0.153  0.653  0.000-  43 2.04  40 2.04  44 2.04
  28  0.097  0.403  0.250-  35 2.04  38 2.04  43 2.04
  29  0.403  0.097  0.750-  39 2.04  42 2.04  46 2.04
  30  0.097  0.403  0.750-  39 2.04  38 2.04  43 2.04
  31  0.347  0.347  0.000-  47 2.04  39 2.04  35 2.04
  32  0.403  0.097  0.250-  35 2.04  42 2.04  46 2.04
  33  0.500  0.500  0.500-  16 2.04  21 2.04  11 2.04   2 2.04   7 2.04  23 2.04  47 3.15  47 3.15
                            37 3.69  39 3.69  40 3.69  41 3.69  44 3.69  45 3.69  34 3.69  35 3.69
  34  0.750  0.750  0.750-   3 2.04  20 2.04  13 2.04  16 2.04  17 2.04  12 2.04  37 3.15  37 3.15
                            33 3.69  38 3.69  42 3.69  43 3.69  46 3.69  47 3.69  36 3.69
  35  0.250  0.250  0.250-  28 2.04  32 2.04  26 2.04  21 2.04  31 2.04  25 2.04  39 3.15  39 3.15
                            38 3.69  33 3.69  42 3.69  43 3.69  46 3.69  47 3.69  36 3.69
  36  0.000  0.000  0.500-  17 2.04  25 2.04   1 2.04  18 2.04  22 2.04   6 2.04  34 3.69  35 3.69
                            37 3.69  39 3.69  40 3.69  41 3.69  44 3.69  45 3.69
  37  0.750  0.750  0.250-  14 2.04  15 2.04  12 2.04  13 2.04  16 2.04  17 2.04  34 3.15  34 3.15
                            36 3.69  38 3.69  42 3.69  43 3.69  46 3.69  47 3.69  33 3.69
  38  0.000  0.500  0.500-  10 2.04  19 2.04  14 2.04   3 2.04  28 2.04  30 2.04  43 3.15  43 3.15
                            37 3.69  39 3.69  40 3.69  41 3.69  34 3.69  44 3.69  45 3.69  35 3.69
  39  0.250  0.250  0.750-  29 2.04  30 2.04  26 2.04  21 2.04  25 2.04  31 2.04  35 3.15  35 3.15
                            36 3.69  38 3.69  42 3.69  43 3.69  46 3.69  47 3.69  33 3.69
  40  0.250  0.750  0.750-   1 2.04   2 2.04   9 2.04  19 2.04  24 2.04  27 2.04  44 3.15  44 3.15
                            38 3.69  42 3.69  43 3.69  33 3.69  46 3.69  47 3.69  36 3.69
  41  0.750  0.250  0.750-  11 2.04  18 2.04   8 2.04  10 2.04   4 2.04   5 2.04  45 3.15  45 3.15
                            38 3.69  42 3.69  43 3.69  33 3.69  46 3.69  47 3.69  36 3.69
  42  0.500  0.000  0.500-   8 2.04   9 2.04  15 2.04  20 2.04  29 2.04  32 2.04  46 3.15  46 3.15
                            37 3.69  39 3.69  40 3.69  41 3.69  44 3.69  45 3.69  34 3.69  35 3.69
  43  0.000  0.500  0.000-   5 2.04  27 2.04  14 2.04   3 2.04  28 2.04  30 2.04  38 3.15  38 3.15
                            37 3.69  34 3.69  39 3.69  40 3.69  41 3.69  44 3.69  45 3.69  35 3.69
  44  0.250  0.750  0.250-  22 2.04  23 2.04   9 2.04  19 2.04  24 2.04  27 2.04  40 3.15  40 3.15
                            38 3.69  33 3.69  42 3.69  43 3.69  46 3.69  47 3.69  36 3.69
  45  0.750  0.250  0.250-   6 2.04   7 2.04   4 2.04   5 2.04   8 2.04  10 2.04  41 3.15  41 3.15
                            38 3.69  33 3.69  42 3.69  43 3.69  46 3.69  47 3.69  36 3.69
  46  0.500  0.000  0.000-   4 2.04  24 2.04  20 2.04  15 2.04  29 2.04  32 2.04  42 3.15  42 3.15
                            37 3.69  39 3.69  40 3.69  41 3.69  34 3.69  44 3.69  45 3.69  35 3.69
  47  0.500  0.500  0.000-  12 2.04  31 2.04  11 2.04   2 2.04  23 2.04   7 2.04  33 3.15  33 3.15
                            35 3.69  37 3.69  39 3.69  40 3.69  41 3.69  44 3.69  45 3.69  34 3.69
 
  LATTYP: Found a simple tetragonal cell.
 ALAT       =     9.4320271667
 C/A-ratio  =     0.6685526591
  
  Lattice vectors:
  
 A1 = (   9.4320271667,   0.0000000000,   0.0000000000)
 A2 = (   0.0000000000,   9.4320271667,   0.0000000000)
 A3 = (   0.0000000000,   0.0000000000,   6.3058068432)


Analysis of symmetry for initial positions (statically):
=====================================================================
 Subroutine PRICEL returns:
 Original cell was already a primitive cell.
 

 Routine SETGRP: Setting up the symmetry group for a 
 simple tetragonal supercell.


 Subroutine GETGRP returns: Found  8 space group operations
 (whereof  8 operations were pure point group operations)
 out of a pool of 16 trial point group operations.


The static configuration has the point symmetry D_2h.


Analysis of symmetry for dynamics (positions and initial velocities):
=====================================================================
 Subroutine PRICEL returns:
 Original cell was already a primitive cell.
 

 Routine SETGRP: Setting up the symmetry group for a 
 simple tetragonal supercell.


 Subroutine GETGRP returns: Found  8 space group operations
 (whereof  8 operations were pure point group operations)
 out of a pool of 16 trial point group operations.


The dynamic configuration has the point symmetry D_2h.


Analysis of constrained symmetry for selective dynamics:
=====================================================================
 Subroutine PRICEL returns:
 Original cell was already a primitive cell.
 

 Routine SETGRP: Setting up the symmetry group for a 
 simple tetragonal supercell.


 Subroutine GETGRP returns: Found  8 space group operations
 (whereof  8 operations were pure point group operations)
 out of a pool of 16 trial point group operations.


The constrained configuration has the point symmetry D_2h.


 Subroutine INISYM returns: Found  8 space group operations
 (whereof  8 operations are pure point group operations),
 and found     1 'primitive' translations

 
 
 KPOINTS: Automatic mesh                          

Automatic generation of k-mesh.
Space group operators:
 irot       det(A)        alpha          n_x          n_y          n_z        tau_x        tau_y        tau_z
    1     1.000000     0.000000     1.000000     0.000000     0.000000     0.000000     0.000000     0.000000
    2    -1.000000     0.000000     1.000000     0.000000     0.000000     0.000000     0.000000     0.000000
    3     1.000000   180.000000     0.000000     0.000000     1.000000     0.000000     0.000000     0.000000
    4    -1.000000   180.000000     0.000000     0.000000     1.000000     0.000000     0.000000     0.000000
    5     1.000000   180.000000     0.707107     0.707107     0.000000     0.000000     0.000000     0.000000
    6    -1.000000   180.000000     0.707107     0.707107     0.000000     0.000000     0.000000     0.000000
    7     1.000000   180.000000     0.707107    -0.707107     0.000000     0.000000     0.000000     0.000000
    8    -1.000000   180.000000     0.707107    -0.707107     0.000000     0.000000     0.000000     0.000000
 
 Subroutine IBZKPT returns following result:
 ===========================================
 
 Found      8 irreducible k-points:
 
 Following reciprocal coordinates:
            Coordinates               Weight
  0.000000  0.000000  0.125000      2.000000
  0.333333  0.000000  0.125000      8.000000
  0.333333  0.333333  0.125000      4.000000
 -0.333333  0.333333  0.125000      4.000000
  0.000000  0.000000  0.375000      2.000000
  0.333333  0.000000  0.375000      8.000000
  0.333333  0.333333  0.375000      4.000000
 -0.333333  0.333333  0.375000      4.000000
 
 Following cartesian coordinates:
            Coordinates               Weight
  0.000000  0.000000  0.019823      2.000000
  0.035341  0.000000  0.019823      8.000000
  0.035341  0.035341  0.019823      4.000000
 -0.035341  0.035341  0.019823      4.000000
  0.000000  0.000000  0.059469      2.000000
  0.035341  0.000000  0.059469      8.000000
  0.035341  0.035341  0.059469      4.000000
 -0.035341  0.035341  0.059469      4.000000
 


--------------------------------------------------------------------------------------------------------




 Dimension of arrays:
   k-points           NKPTS =      8   k-points in BZ     NKDIM =      8   number of bands    NBANDS=    244
   number of dos      NEDOS =    301   number of ions     NIONS =     47
   non local maximal  LDIM  =      6   non local SUM 2l+1 LMDIM =     18
   total plane-waves  NPLWV = 104976
   max r-space proj   IRMAX =      1   max aug-charges    IRDMAX=   8555
   dimension x,y,z NGX =    54 NGY =   54 NGZ =   36
   dimension x,y,z NGXF=   108 NGYF=  108 NGZF=   72
   support grid    NGXF=   108 NGYF=  108 NGZF=   72
   ions per type =              32  15
 NGX,Y,Z   is equivalent  to a cutoff of   9.52,  9.52,  9.49 a.u.
 NGXF,Y,Z  is equivalent  to a cutoff of  19.04, 19.04, 18.98 a.u.


 I would recommend the setting:
   dimension x,y,z NGX =    51 NGY =   51 NGZ =   34
 SYSTEM =  SnO2                                    
 POSCAR =  SnO2                                    

 Startparameter for this run:
   NWRITE =      2    write-flag & timer
   PREC   = normal    normal or accurate (medium, high low for compatibility)
   ISTART =      0    job   : 0-new  1-cont  2-samecut
   ICHARG =      2    charge: 1-file 2-atom 10-const
   ISPIN  =      1    spin polarized calculation?
   LNONCOLLINEAR =      F non collinear calculations
   LSORBIT =      F    spin-orbit coupling
   INIWAV =      1    electr: 0-lowe 1-rand  2-diag
   LASPH  =      F    aspherical Exc in radial PAW
   METAGGA=      F    non-selfconsistent MetaGGA calc.

 Electronic Relaxation 1
   ENCUT  =  480.0 eV  35.28 Ry    5.94 a.u.  16.85 16.85 11.26*2*pi/ulx,y,z
   ENINI  =  480.0     initial cutoff
   ENAUG  =  605.4 eV  augmentation charge cutoff
   NELM   =     60;   NELMIN=  2; NELMDL= -5     # of ELM steps 
   EDIFF  = 0.1E-03   stopping-criterion for ELM
   LREAL  =      F    real-space projection
   NLSPLINE    = F    spline interpolate recip. space projectors
   LCOMPAT=      F    compatible to vasp.4.4
   GGA_COMPAT  = T    GGA compatible to vasp.4.4-vasp.4.6
   LMAXPAW     = -100 max onsite density
   LMAXMIX     =    4 max onsite mixed and CHGCAR
   VOSKOWN=      0    Vosko Wilk Nusair interpolation
   ROPT   =    0.00000   0.00000
 Ionic relaxation
   EDIFFG = -.5E-01   stopping-criterion for IOM
   NSW    =    100    number of steps for IOM
   NBLOCK =      1;   KBLOCK =    100    inner block; outer block 
   IBRION =      1    ionic relax: 0-MD 1-quasi-New 2-CG
   NFREE  =      0    steps in history (QN), initial steepest desc. (CG)
   ISIF   =      2    stress and relaxation
   IWAVPR =     11    prediction:  0-non 1-charg 2-wave 3-comb
   ISYM   =      2    0-nonsym 1-usesym 2-fastsym
   LCORR  =      T    Harris-Foulkes like correction to forces

   POTIM  = 0.5000    time-step for ionic-motion
   TEIN   =    0.0    initial temperature
   TEBEG  =    0.0;   TEEND  =   0.0 temperature during run
   SMASS  =  -3.00    Nose mass-parameter (am)
   estimated Nose-frequenzy (Omega)   =  0.10E-29 period in steps =****** mass=  -0.203E-26a.u.
   SCALEE = 1.0000    scale energy and forces
   NPACO  =    256;   APACO  = 16.0  distance and # of slots for P.C.
   PSTRESS=    0.0 pullay stress

  Mass of Ions in am
   POMASS =  16.00118.71
  Ionic Valenz
   ZVAL   =   6.00 14.00
  Atomic Wigner-Seitz radii
   RWIGS  =  -1.00 -1.00
  virtual crystal weights 
   VCA    =   1.00  1.00
   NELECT =     403.0000    total number of electrons
   NUPDOWN=      -1.0000    fix difference up-down

 DOS related values:
   EMIN   =  10.00;   EMAX   =-10.00  energy-range for DOS
   EFERMI =   0.00
   ISMEAR =     0;   SIGMA  =   0.10  broadening in eV -4-tet -1-fermi 0-gaus

 Electronic relaxation 2 (details)
   IALGO  =     48    algorithm
   LDIAG  =      T    sub-space diagonalisation (order eigenvalues)
   LSUBROT=      F    optimize rotation matrix (better conditioning)
   TURBO    =      0    0=normal 1=particle mesh
   IRESTART =      0    0=no restart 2=restart with 2 vectors
   NREBOOT  =      0    no. of reboots
   NMIN     =      0    reboot dimension
   EREF     =   0.00    reference energy to select bands
   IMIX   =      4    mixing-type and parameters
     AMIX     =   0.40;   BMIX     =  1.00
     AMIX_MAG =   1.60;   BMIX_MAG =  1.00
     AMIN     =   0.10
     WC   =   100.;   INIMIX=   1;  MIXPRE=   1;  MAXMIX= -45

 Intra band minimization:
   WEIMIN = 0.0010     energy-eigenvalue tresh-hold
   EBREAK =  0.10E-06  absolut break condition
   DEPER  =   0.30     relativ break condition  

   TIME   =   0.40     timestep for ELM

  volume/ion in A,a.u.               =      11.94        80.55
  Fermi-wavevector in a.u.,A,eV,Ry     =   1.466199  2.770714 29.248983  2.149740
  Thomas-Fermi vector in A             =   2.581965
 
 Write flags
   LWAVE  =      T    write WAVECAR
   LCHARG =      T    write CHGCAR
   LVTOT  =      F    write LOCPOT, total local potential
   LVHAR  =      F    write LOCPOT, Hartree potential only
   LELF   =      F    write electronic localiz. function (ELF)
   LORBIT =      0    0 simple, 1 ext, 2 COOP (PROOUT)


 Dipole corrections
   LMONO  =      F    monopole corrections only (constant potential shift)
   LDIPOL =      F    correct potential (dipole corrections)
   IDIPOL =      0    1-x, 2-y, 3-z, 4-all directions 
   EPSILON=  1.0000000 bulk dielectric constant

 LDA+U is selected, type is set to LDAUTYPE =  2
   angular momentum for each species LDAUL =    -1    2
   U (eV)           for each species LDAUU =   0.0  4.0
   J (eV)           for each species LDAUJ =   0.0  0.0
 Exchange correlation treatment:
   GGA     =    --    GGA type
   LEXCH   =     8    internal setting for exchange type
   VOSKOWN=      0    Vosko Wilk Nusair interpolation
   LHFCALC =     F    Hartree Fock is set to
   LHFONE  =     F    Hartree Fock one center treatment
   AEXX    =    0.0000 exact exchange contribution

 Linear response parameters
   LEPSILON=     F    determine dielectric tensor
   LRPA    =     F    only Hartree local field effects (RPA)
   LNABLA  =     F    use nabla operator in PAW spheres
   LVEL    =     F    velocity operator in full k-point grid
   LINTERFAST=   F  fast interpolation
   KINTER  =     0    interpolate to denser k-point grid
   CSHIFT  =0.1000    complex shift for real part using Kramers Kronig
   OMEGAMAX=  -1.0    maximum frequency
   DEG_THRESHOLD= 0.2000000E-02 threshold for treating states as degnerate
   RTIME   =    0.100 relaxation time in fs

 Orbital magnetization related:
   ORBITALMAG=     F  switch on orbital magnetization
   LCHIMAG   =     F  perturbation theory with respect to B field
   DQ        =  0.001000  dq finite difference perturbation B field



--------------------------------------------------------------------------------------------------------


 quasi-Newton-method for relaxation of ions
   using selective dynamics as specified on POSCAR
 charge density and potential will be updated during run
 non-spin polarized calculation
 RMM-DIIS sequential band-by-band
 perform sub-space diagonalisation
    before iterative eigenvector-optimisation
 modified Broyden-mixing scheme, WC =      100.0
 initial mixing is a Kerker type mixing with AMIX =  0.4000 and BMIX =      1.0000
 Hartree-type preconditioning will be used
 using additional bands           42
 reciprocal scheme for non local part
 use partial core corrections
 calculate Harris-corrections to forces 
   (improved forces if not selfconsistent)
 use gradient corrections 
 use of overlap-Matrix (Vanderbilt PP)
 Gauss-broadening in eV      SIGMA  =   0.10


--------------------------------------------------------------------------------------------------------


  energy-cutoff  :      480.00
  volume of cell :      560.98
      direct lattice vectors                 reciprocal lattice vectors
     9.432027167  0.000000000  0.000000000     0.106021747  0.000000000  0.000000000
     0.000000000  9.432027167  0.000000000     0.000000000  0.106021747  0.000000000
     0.000000000  0.000000000  6.305806843     0.000000000  0.000000000  0.158583989

  length of vectors
     9.432027167  9.432027167  6.305806843     0.106021747  0.106021747  0.158583989


 
 k-points in units of 2pi/SCALE and weight: Automatic mesh                          
   0.00000000  0.00000000  0.01982300       0.056
   0.03534058  0.00000000  0.01982300       0.222
   0.03534058  0.03534058  0.01982300       0.111
  -0.03534058  0.03534058  0.01982300       0.111
   0.00000000  0.00000000  0.05946900       0.056
   0.03534058  0.00000000  0.05946900       0.222
   0.03534058  0.03534058  0.05946900       0.111
  -0.03534058  0.03534058  0.05946900       0.111
 
 k-points in reciprocal lattice and weights: Automatic mesh                          
   0.00000000  0.00000000  0.12500000       0.056
   0.33333333  0.00000000  0.12500000       0.222
   0.33333333  0.33333333  0.12500000       0.111
  -0.33333333  0.33333333  0.12500000       0.111
   0.00000000  0.00000000  0.37500000       0.056
   0.33333333  0.00000000  0.37500000       0.222
   0.33333333  0.33333333  0.37500000       0.111
  -0.33333333  0.33333333  0.37500000       0.111
 
 position of ions in fractional coordinates (direct lattice) 
   0.09707491  0.90292509  0.75000000
   0.40292509  0.59707491  0.75000000
   0.90292509  0.59707491  0.75000000
   0.65292509  0.15292509  0.00000000
   0.84707491  0.34707491  0.00000000
   0.90292509  0.09707491  0.25000000
   0.59707491  0.40292509  0.25000000
   0.65292509  0.15292509  0.50000000
   0.34707491  0.84707491  0.50000000
   0.84707491  0.34707491  0.50000000
   0.59707491  0.40292509  0.75000000
   0.65292509  0.65292509  0.00000000
   0.84707491  0.84707491  0.00000000
   0.90292509  0.59707491  0.25000000
   0.59707491  0.90292509  0.25000000
   0.65292509  0.65292509  0.50000000
   0.84707491  0.84707491  0.50000000
   0.90292509  0.09707491  0.75000000
   0.15292509  0.65292509  0.50000000
   0.59707491  0.90292509  0.75000000
   0.34707491  0.34707491  0.50000000
   0.09707491  0.90292509  0.25000000
   0.40292509  0.59707491  0.25000000
   0.34707491  0.84707491  0.00000000
   0.15292509  0.15292509  0.50000000
   0.15292509  0.15292509  0.00000000
   0.15292509  0.65292509  0.00000000
   0.09707491  0.40292509  0.25000000
   0.40292509  0.09707491  0.75000000
   0.09707491  0.40292509  0.75000000
   0.34707491  0.34707491  0.00000000
   0.40292509  0.09707491  0.25000000
   0.50000000  0.50000000  0.50000000
   0.75000000  0.75000000  0.75000000
   0.25000000  0.25000000  0.25000000
   0.00000000  0.00000000  0.50000000
   0.75000000  0.75000000  0.25000000
   0.00000000  0.50000000  0.50000000
   0.25000000  0.25000000  0.75000000
   0.25000000  0.75000000  0.75000000
   0.75000000  0.25000000  0.75000000
   0.50000000  0.00000000  0.50000000
   0.00000000  0.50000000  0.00000000
   0.25000000  0.75000000  0.25000000
   0.75000000  0.25000000  0.25000000
   0.50000000  0.00000000  0.00000000
   0.50000000  0.50000000  0.00000000
 
 position of ions in cartesian coordinates  (Angst):
   0.91561321  8.51641396  4.72935513
   3.80040037  5.63162680  4.72935513
   8.51641396  5.63162680  4.72935513
   6.15840716  1.44239358  0.00000000
   7.98963359  3.27362000  0.00000000
   8.51641396  0.91561321  1.57645171
   5.63162680  3.80040037  1.57645171
   6.15840716  1.44239358  3.15290342
   3.27362000  7.98963359  3.15290342
   7.98963359  3.27362000  3.15290342
   5.63162680  3.80040037  4.72935513
   6.15840716  6.15840716  0.00000000
   7.98963359  7.98963359  0.00000000
   8.51641396  5.63162680  1.57645171
   5.63162680  8.51641396  1.57645171
   6.15840716  6.15840716  3.15290342
   7.98963359  7.98963359  3.15290342
   8.51641396  0.91561321  4.72935513
   1.44239358  6.15840716  3.15290342
   5.63162680  8.51641396  4.72935513
   3.27362000  3.27362000  3.15290342
   0.91561321  8.51641396  1.57645171
   3.80040037  5.63162680  1.57645171
   3.27362000  7.98963359  0.00000000
   1.44239358  1.44239358  3.15290342
   1.44239358  1.44239358  0.00000000
   1.44239358  6.15840716  0.00000000
   0.91561321  3.80040037  1.57645171
   3.80040037  0.91561321  4.72935513
   0.91561321  3.80040037  4.72935513
   3.27362000  3.27362000  0.00000000
   3.80040037  0.91561321  1.57645171
   4.71601358  4.71601358  3.15290342
   7.07402038  7.07402038  4.72935513
   2.35800679  2.35800679  1.57645171
   0.00000000  0.00000000  3.15290342
   7.07402038  7.07402038  1.57645171
   0.00000000  4.71601358  3.15290342
   2.35800679  2.35800679  4.72935513
   2.35800679  7.07402038  4.72935513
   7.07402038  2.35800679  4.72935513
   4.71601358  0.00000000  3.15290342
   0.00000000  4.71601358  0.00000000
   2.35800679  7.07402038  1.57645171
   7.07402038  2.35800679  1.57645171
   4.71601358  0.00000000  0.00000000
   4.71601358  4.71601358  0.00000000
 


--------------------------------------------------------------------------------------------------------


 k-point  1 :   0.0000 0.0000 0.1250  plane waves:   13447
 k-point  2 :   0.3333 0.0000 0.1250  plane waves:   13402
 k-point  3 :   0.3333 0.3333 0.1250  plane waves:   13398
 k-point  4 :  -0.3333 0.3333 0.1250  plane waves:   13398
 k-point  5 :   0.0000 0.0000 0.3750  plane waves:   13390
 k-point  6 :   0.3333 0.0000 0.3750  plane waves:   13392
 k-point  7 :   0.3333 0.3333 0.3750  plane waves:   13396
 k-point  8 :  -0.3333 0.3333 0.3750  plane waves:   13396

 maximum and minimum number of plane-waves per node :      1695     1657

 maximum number of plane-waves:     13447
 maximum index in each direction: 
   IXMAX=   17   IYMAX=   16   IZMAX=   11
   IXMIN=  -17   IYMIN=  -17   IZMIN=  -11

 WARNING: aliasing errors must be expected set NGX to  70 to avoid them
 WARNING: aliasing errors must be expected set NGY to  68 to avoid them
 WARNING: aliasing errors must be expected set NGZ to  46 to avoid them
 aliasing errors are usually negligible using standard VASP settings
 and one can safely disregard these warnings

 parallel 3D FFT for wavefunctions:
    minimum data exchange during FFTs selected (reduces bandwidth)
 parallel 3D FFT for charge:
    minimum data exchange during FFTs selected (reduces bandwidth)


 total amount of memory used by VASP on root node    52824. kBytes
========================================================================

   base      :      30000. kBytes
   nonl-proj :       5182. kBytes
   fftplans  :       1450. kBytes
   grid      :       2326. kBytes
   one-center:         93. kBytes
   wavefun   :      13773. kBytes
 
     INWAV:  cpu time    0.0010: real time    0.0002
 Broyden mixing: mesh for mixing (old mesh)
   NGX = 33   NGY = 33   NGZ = 23
  (NGX  =108   NGY  =108   NGZ  = 72)
  gives a total of  25047 points

 initial charge density was supplied:
 charge density of overlapping atoms calculated
 number of electron     402.0000000 magnetization 
 keeping initial charge density in first step


--------------------------------------------------------------------------------------------------------


 Maximum index for augmentation-charges          526 (set IRDMAX)


--------------------------------------------------------------------------------------------------------


 First call to EWALD:  gamma=   0.215
 Maximum number of real-space cells 2x 2x 3
 Maximum number of reciprocal cells 3x 3x 2

 FEWALD executed in parallel
    FEWALD:  cpu time    0.0740: real time    0.0739


----------------------------------------- Iteration    1(   1)  ---------------------------------------


    POTLOK:  cpu time    0.2810: real time    0.4010
    SETDIJ:  cpu time    0.1290: real time    0.1890
atom =  33  type =  2  l = 2
 
 onsite density matrix
 
spin component  1
 
  0.9926  0.0000  0.0000  0.0000  0.0000
  0.0000  0.9926  0.0000  0.0000  0.0000
  0.0000  0.0000  0.9926  0.0000  0.0000
  0.0000  0.0000  0.0000  0.9926  0.0000
  0.0000  0.0000  0.0000  0.0000  0.9926
 
spin component  2
 
  0.9926  0.0000  0.0000  0.0000  0.0000
  0.0000  0.9926  0.0000  0.0000  0.0000
  0.0000  0.0000  0.9926  0.0000  0.0000
  0.0000  0.0000  0.0000  0.9926  0.0000
  0.0000  0.0000  0.0000  0.0000  0.9926
 
 occupancies and eigenvectors
 
  o =  0.9926  v =  1.0000  0.0000  0.0000  0.0000  0.0000  0.0000  0.0000  0.0000  0.0000  0.0000      0.0000  0.0000  0.0000  0.0000  0.0000  0.0000  0.0000  0.0000  0.0000  0.0000
  o =  0.9926  v =  0.0000  1.0000  0.0000  0.0000  0.0000  0.0000  0.0000  0.0000  0.0000  0.0000      0.0000  0.0000  0.0000  0.0000  0.0000  0.0000  0.0000  0.0000  0.0000  0.0000
  o =  0.9926  v =  0.0000  0.0000  1.0000  0.0000  0.0000  0.0000  0.0000  0.0000  0.0000  0.0000      0.0000  0.0000  0.0000  0.0000  0.0000  0.0000  0.0000  0.0000  0.0000  0.0000
  o =  0.9926  v =  0.0000  0.0000  0.0000  1.0000  0.0000  0.0000  0.0000  0.0000  0.0000  0.0000      0.0000  0.0000  0.0000  0.0000  0.0000  0.0000  0.0000  0.0000  0.0000  0.0000
  o =  0.9926  v =  0.0000  0.0000  0.0000  0.0000  1.0000  0.0000  0.0000  0.0000  0.0000  0.0000      0.0000  0.0000  0.0000  0.0000  0.0000  0.0000  0.0000  0.0000  0.0000  0.0000
  o =  0.9926  v =  0.0000  0.0000  0.0000  0.0000  0.0000  1.0000  0.0000  0.0000  0.0000  0.0000      0.0000  0.0000  0.0000  0.0000  0.0000  0.0000  0.0000  0.0000  0.0000  0.0000
  o =  0.9926  v =  0.0000  0.0000  0.0000  0.0000  0.0000  0.0000  1.0000  0.0000  0.0000  0.0000      0.0000  0.0000  0.0000  0.0000  0.0000  0.0000  0.0000  0.0000  0.0000  0.0000
  o =  0.9926  v =  0.0000  0.0000  0.0000  0.0000  0.0000  0.0000  0.0000  1.0000  0.0000  0.0000      0.0000  0.0000  0.0000  0.0000  0.0000  0.0000  0.0000  0.0000  0.0000  0.0000
  o =  0.9926  v =  0.0000  0.0000  0.0000  0.0000  0.0000  0.0000  0.0000  0.0000  1.0000  0.0000      0.0000  0.0000  0.0000  0.0000  0.0000  0.0000  0.0000  0.0000  0.0000  0.0000
  o =  0.9926  v =  0.0000  0.0000  0.0000  0.0000  0.0000  0.0000  0.0000  0.0000  0.0000  1.0000      0.0000  0.0000  0.0000  0.0000  0.0000  0.0000  0.0000  0.0000  0.0000  0.0000
atom =  34  type =  2  l = 2
 
 onsite density matrix
 
spin component  1
 
  0.9926  0.0000  0.0000  0.0000  0.0000
  0.0000  0.9926  0.0000  0.0000  0.0000
  0.0000  0.0000  0.9926  0.0000  0.0000
  0.0000  0.0000  0.0000  0.9926  0.0000
  0.0000  0.0000  0.0000  0.0000  0.9926
 
spin component  2
 
  0.9926  0.0000  0.0000  0.0000  0.0000
  0.0000  0.9926  0.0000  0.0000  0.0000
  0.0000  0.0000  0.9926  0.0000  0.0000
  0.0000  0.0000  0.0000  0.9926  0.0000
  0.0000  0.0000  0.0000  0.0000  0.9926
 
 occupancies and eigenvectors
 
  o =  0.9926  v =  1.0000  0.0000  0.0000  0.0000  0.0000  0.0000  0.0000  0.0000  0.0000  0.0000      0.0000  0.0000  0.0000  0.0000  0.0000  0.0000  0.0000  0.0000  0.0000  0.0000
  o =  0.9926  v =  0.0000  1.0000  0.0000  0.0000  0.0000  0.0000  0.0000  0.0000  0.0000  0.0000      0.0000  0.0000  0.0000  0.0000  0.0000  0.0000  0.0000  0.0000  0.0000  0.0000
  o =  0.9926  v =  0.0000  0.0000  1.0000  0.0000  0.0000  0.0000  0.0000  0.0000  0.0000  0.0000      0.0000  0.0000  0.0000  0.0000  0.0000  0.0000  0.0000  0.0000  0.0000  0.0000
  o =  0.9926  v =  0.0000  0.0000  0.0000  1.0000  0.0000  0.0000  0.0000  0.0000  0.0000  0.0000      0.0000  0.0000  0.0000  0.0000  0.0000  0.0000  0.0000  0.0000  0.0000  0.0000
  o =  0.9926  v =  0.0000  0.0000  0.0000  0.0000  1.0000  0.0000  0.0000  0.0000  0.0000  0.0000      0.0000  0.0000  0.0000  0.0000  0.0000  0.0000  0.0000  0.0000  0.0000  0.0000
  o =  0.9926  v =  0.0000  0.0000  0.0000  0.0000  0.0000  1.0000  0.0000  0.0000  0.0000  0.0000      0.0000  0.0000  0.0000  0.0000  0.0000  0.0000  0.0000  0.0000  0.0000  0.0000
  o =  0.9926  v =  0.0000  0.0000  0.0000  0.0000  0.0000  0.0000  1.0000  0.0000  0.0000  0.0000      0.0000  0.0000  0.0000  0.0000  0.0000  0.0000  0.0000  0.0000  0.0000  0.0000
  o =  0.9926  v =  0.0000  0.0000  0.0000  0.0000  0.0000  0.0000  0.0000  1.0000  0.0000  0.0000      0.0000  0.0000  0.0000  0.0000  0.0000  0.0000  0.0000  0.0000  0.0000  0.0000
  o =  0.9926  v =  0.0000  0.0000  0.0000  0.0000  0.0000  0.0000  0.0000  0.0000  1.0000  0.0000      0.0000  0.0000  0.0000  0.0000  0.0000  0.0000  0.0000  0.0000  0.0000  0.0000
  o =  0.9926  v =  0.0000  0.0000  0.0000  0.0000  0.0000  0.0000  0.0000  0.0000  0.0000  1.0000      0.0000  0.0000  0.0000  0.0000  0.0000  0.0000  0.0000  0.0000  0.0000  0.0000
atom =  35  type =  2  l = 2
 
 onsite density matrix
 
spin component  1
 
  0.9926  0.0000  0.0000  0.0000  0.0000
  0.0000  0.9926  0.0000  0.0000  0.0000
  0.0000  0.0000  0.9926  0.0000  0.0000
  0.0000  0.0000  0.0000  0.9926  0.0000
  0.0000  0.0000  0.0000  0.0000  0.9926
 
spin component  2
 
  0.9926  0.0000  0.0000  0.0000  0.0000
  0.0000  0.9926  0.0000  0.0000  0.0000
  0.0000  0.0000  0.9926  0.0000  0.0000
  0.0000  0.0000  0.0000  0.9926  0.0000
  0.0000  0.0000  0.0000  0.0000  0.9926
 
 occupancies and eigenvectors
 
  o =  0.9926  v =  1.0000  0.0000  0.0000  0.0000  0.0000  0.0000  0.0000  0.0000  0.0000  0.0000      0.0000  0.0000  0.0000  0.0000  0.0000  0.0000  0.0000  0.0000  0.0000  0.0000
  o =  0.9926  v =  0.0000  1.0000  0.0000  0.0000  0.0000  0.0000  0.0000  0.0000  0.0000  0.0000      0.0000  0.0000  0.0000  0.0000  0.0000  0.0000  0.0000  0.0000  0.0000  0.0000
  o =  0.9926  v =  0.0000  0.0000  1.0000  0.0000  0.0000  0.0000  0.0000  0.0000  0.0000  0.0000      0.0000  0.0000  0.0000  0.0000  0.0000  0.0000  0.0000  0.0000  0.0000  0.0000
  o =  0.9926  v =  0.0000  0.0000  0.0000  1.0000  0.0000  0.0000  0.0000  0.0000  0.0000  0.0000      0.0000  0.0000  0.0000  0.0000  0.0000  0.0000  0.0000  0.0000  0.0000  0.0000
  o =  0.9926  v =  0.0000  0.0000  0.0000  0.0000  1.0000  0.0000  0.0000  0.0000  0.0000  0.0000      0.0000  0.0000  0.0000  0.0000  0.0000  0.0000  0.0000  0.0000  0.0000  0.0000
  o =  0.9926  v =  0.0000  0.0000  0.0000  0.0000  0.0000  1.0000  0.0000  0.0000  0.0000  0.0000      0.0000  0.0000  0.0000  0.0000  0.0000  0.0000  0.0000  0.0000  0.0000  0.0000
  o =  0.9926  v =  0.0000  0.0000  0.0000  0.0000  0.0000  0.0000  1.0000  0.0000  0.0000  0.0000      0.0000  0.0000  0.0000  0.0000  0.0000  0.0000  0.0000  0.0000  0.0000  0.0000
  o =  0.9926  v =  0.0000  0.0000  0.0000  0.0000  0.0000  0.0000  0.0000  1.0000  0.0000  0.0000      0.0000  0.0000  0.0000  0.0000  0.0000  0.0000  0.0000  0.0000  0.0000  0.0000
  o =  0.9926  v =  0.0000  0.0000  0.0000  0.0000  0.0000  0.0000  0.0000  0.0000  1.0000  0.0000      0.0000  0.0000  0.0000  0.0000  0.0000  0.0000  0.0000  0.0000  0.0000  0.0000
  o =  0.9926  v =  0.0000  0.0000  0.0000  0.0000  0.0000  0.0000  0.0000  0.0000  0.0000  1.0000      0.0000  0.0000  0.0000  0.0000  0.0000  0.0000  0.0000  0.0000  0.0000  0.0000
atom =  36  type =  2  l = 2
 
 onsite density matrix
 
spin component  1
 
  0.9926  0.0000  0.0000  0.0000  0.0000
  0.0000  0.9926  0.0000  0.0000  0.0000
  0.0000  0.0000  0.9926  0.0000  0.0000
  0.0000  0.0000  0.0000  0.9926  0.0000
  0.0000  0.0000  0.0000  0.0000  0.9926
 
spin component  2
 
  0.9926  0.0000  0.0000  0.0000  0.0000
  0.0000  0.9926  0.0000  0.0000  0.0000
  0.0000  0.0000  0.9926  0.0000  0.0000
  0.0000  0.0000  0.0000  0.9926  0.0000
  0.0000  0.0000  0.0000  0.0000  0.9926
 
 occupancies and eigenvectors
 
  o =  0.9926  v =  1.0000  0.0000  0.0000  0.0000  0.0000  0.0000  0.0000  0.0000  0.0000  0.0000      0.0000  0.0000  0.0000  0.0000  0.0000  0.0000  0.0000  0.0000  0.0000  0.0000
  o =  0.9926  v =  0.0000  1.0000  0.0000  0.0000  0.0000  0.0000  0.0000  0.0000  0.0000  0.0000      0.0000  0.0000  0.0000  0.0000  0.0000  0.0000  0.0000  0.0000  0.0000  0.0000
  o =  0.9926  v =  0.0000  0.0000  1.0000  0.0000  0.0000  0.0000  0.0000  0.0000  0.0000  0.0000      0.0000  0.0000  0.0000  0.0000  0.0000  0.0000  0.0000  0.0000  0.0000  0.0000
  o =  0.9926  v =  0.0000  0.0000  0.0000  1.0000  0.0000  0.0000  0.0000  0.0000  0.0000  0.0000      0.0000  0.0000  0.0000  0.0000  0.0000  0.0000  0.0000  0.0000  0.0000  0.0000
  o =  0.9926  v =  0.0000  0.0000  0.0000  0.0000  1.0000  0.0000  0.0000  0.0000  0.0000  0.0000      0.0000  0.0000  0.0000  0.0000  0.0000  0.0000  0.0000  0.0000  0.0000  0.0000
  o =  0.9926  v =  0.0000  0.0000  0.0000  0.0000  0.0000  1.0000  0.0000  0.0000  0.0000  0.0000      0.0000  0.0000  0.0000  0.0000  0.0000  0.0000  0.0000  0.0000  0.0000  0.0000
  o =  0.9926  v =  0.0000  0.0000  0.0000  0.0000  0.0000  0.0000  1.0000  0.0000  0.0000  0.0000      0.0000  0.0000  0.0000  0.0000  0.0000  0.0000  0.0000  0.0000  0.0000  0.0000
  o =  0.9926  v =  0.0000  0.0000  0.0000  0.0000  0.0000  0.0000  0.0000  1.0000  0.0000  0.0000      0.0000  0.0000  0.0000  0.0000  0.0000  0.0000  0.0000  0.0000  0.0000  0.0000
  o =  0.9926  v =  0.0000  0.0000  0.0000  0.0000  0.0000  0.0000  0.0000  0.0000  1.0000  0.0000      0.0000  0.0000  0.0000  0.0000  0.0000  0.0000  0.0000  0.0000  0.0000  0.0000
  o =  0.9926  v =  0.0000  0.0000  0.0000  0.0000  0.0000  0.0000  0.0000  0.0000  0.0000  1.0000      0.0000  0.0000  0.0000  0.0000  0.0000  0.0000  0.0000  0.0000  0.0000  0.0000
atom =  37  type =  2  l = 2
 
 onsite density matrix
 
spin component  1
 
  0.9926  0.0000  0.0000  0.0000  0.0000
  0.0000  0.9926  0.0000  0.0000  0.0000
  0.0000  0.0000  0.9926  0.0000  0.0000
  0.0000  0.0000  0.0000  0.9926  0.0000
  0.0000  0.0000  0.0000  0.0000  0.9926
 
spin component  2
 
  0.9926  0.0000  0.0000  0.0000  0.0000
  0.0000  0.9926  0.0000  0.0000  0.0000
  0.0000  0.0000  0.9926  0.0000  0.0000
  0.0000  0.0000  0.0000  0.9926  0.0000
  0.0000  0.0000  0.0000  0.0000  0.9926
 
 occupancies and eigenvectors
 
  o =  0.9926  v =  1.0000  0.0000  0.0000  0.0000  0.0000  0.0000  0.0000  0.0000  0.0000  0.0000      0.0000  0.0000  0.0000  0.0000  0.0000  0.0000  0.0000  0.0000  0.0000  0.0000
  o =  0.9926  v =  0.0000  1.0000  0.0000  0.0000  0.0000  0.0000  0.0000  0.0000  0.0000  0.0000      0.0000  0.0000  0.0000  0.0000  0.0000  0.0000  0.0000  0.0000  0.0000  0.0000
  o =  0.9926  v =  0.0000  0.0000  1.0000  0.0000  0.0000  0.0000  0.0000  0.0000  0.0000  0.0000      0.0000  0.0000  0.0000  0.0000  0.0000  0.0000  0.0000  0.0000  0.0000  0.0000
  o =  0.9926  v =  0.0000  0.0000  0.0000  1.0000  0.0000  0.0000  0.0000  0.0000  0.0000  0.0000      0.0000  0.0000  0.0000  0.0000  0.0000  0.0000  0.0000  0.0000  0.0000  0.0000
  o =  0.9926  v =  0.0000  0.0000  0.0000  0.0000  1.0000  0.0000  0.0000  0.0000  0.0000  0.0000      0.0000  0.0000  0.0000  0.0000  0.0000  0.0000  0.0000  0.0000  0.0000  0.0000
  o =  0.9926  v =  0.0000  0.0000  0.0000  0.0000  0.0000  1.0000  0.0000  0.0000  0.0000  0.0000      0.0000  0.0000  0.0000  0.0000  0.0000  0.0000  0.0000  0.0000  0.0000  0.0000
  o =  0.9926  v =  0.0000  0.0000  0.0000  0.0000  0.0000  0.0000  1.0000  0.0000  0.0000  0.0000      0.0000  0.0000  0.0000  0.0000  0.0000  0.0000  0.0000  0.0000  0.0000  0.0000
  o =  0.9926  v =  0.0000  0.0000  0.0000  0.0000  0.0000  0.0000  0.0000  1.0000  0.0000  0.0000      0.0000  0.0000  0.0000  0.0000  0.0000  0.0000  0.0000  0.0000  0.0000  0.0000
  o =  0.9926  v =  0.0000  0.0000  0.0000  0.0000  0.0000  0.0000  0.0000  0.0000  1.0000  0.0000      0.0000  0.0000  0.0000  0.0000  0.0000  0.0000  0.0000  0.0000  0.0000  0.0000
  o =  0.9926  v =  0.0000  0.0000  0.0000  0.0000  0.0000  0.0000  0.0000  0.0000  0.0000  1.0000      0.0000  0.0000  0.0000  0.0000  0.0000  0.0000  0.0000  0.0000  0.0000  0.0000
atom =  38  type =  2  l = 2
 
 onsite density matrix
 
spin component  1
 
  0.9926  0.0000  0.0000  0.0000  0.0000
  0.0000  0.9926  0.0000  0.0000  0.0000
  0.0000  0.0000  0.9926  0.0000  0.0000
  0.0000  0.0000  0.0000  0.9926  0.0000
  0.0000  0.0000  0.0000  0.0000  0.9926
 
spin component  2
 
  0.9926  0.0000  0.0000  0.0000  0.0000
  0.0000  0.9926  0.0000  0.0000  0.0000
  0.0000  0.0000  0.9926  0.0000  0.0000
  0.0000  0.0000  0.0000  0.9926  0.0000
  0.0000  0.0000  0.0000  0.0000  0.9926
 
 occupancies and eigenvectors
 
  o =  0.9926  v =  1.0000  0.0000  0.0000  0.0000  0.0000  0.0000  0.0000  0.0000  0.0000  0.0000      0.0000  0.0000  0.0000  0.0000  0.0000  0.0000  0.0000  0.0000  0.0000  0.0000
  o =  0.9926  v =  0.0000  1.0000  0.0000  0.0000  0.0000  0.0000  0.0000  0.0000  0.0000  0.0000      0.0000  0.0000  0.0000  0.0000  0.0000  0.0000  0.0000  0.0000  0.0000  0.0000
  o =  0.9926  v =  0.0000  0.0000  1.0000  0.0000  0.0000  0.0000  0.0000  0.0000  0.0000  0.0000      0.0000  0.0000  0.0000  0.0000  0.0000  0.0000  0.0000  0.0000  0.0000  0.0000
  o =  0.9926  v =  0.0000  0.0000  0.0000  1.0000  0.0000  0.0000  0.0000  0.0000  0.0000  0.0000      0.0000  0.0000  0.0000  0.0000  0.0000  0.0000  0.0000  0.0000  0.0000  0.0000
  o =  0.9926  v =  0.0000  0.0000  0.0000  0.0000  1.0000  0.0000  0.0000  0.0000  0.0000  0.0000      0.0000  0.0000  0.0000  0.0000  0.0000  0.0000  0.0000  0.0000  0.0000  0.0000
  o =  0.9926  v =  0.0000  0.0000  0.0000  0.0000  0.0000  1.0000  0.0000  0.0000  0.0000  0.0000      0.0000  0.0000  0.0000  0.0000  0.0000  0.0000  0.0000  0.0000  0.0000  0.0000
  o =  0.9926  v =  0.0000  0.0000  0.0000  0.0000  0.0000  0.0000  1.0000  0.0000  0.0000  0.0000      0.0000  0.0000  0.0000  0.0000  0.0000  0.0000  0.0000  0.0000  0.0000  0.0000
  o =  0.9926  v =  0.0000  0.0000  0.0000  0.0000  0.0000  0.0000  0.0000  1.0000  0.0000  0.0000      0.0000  0.0000  0.0000  0.0000  0.0000  0.0000  0.0000  0.0000  0.0000  0.0000
  o =  0.9926  v =  0.0000  0.0000  0.0000  0.0000  0.0000  0.0000  0.0000  0.0000  1.0000  0.0000      0.0000  0.0000  0.0000  0.0000  0.0000  0.0000  0.0000  0.0000  0.0000  0.0000
  o =  0.9926  v =  0.0000  0.0000  0.0000  0.0000  0.0000  0.0000  0.0000  0.0000  0.0000  1.0000      0.0000  0.0000  0.0000  0.0000  0.0000  0.0000  0.0000  0.0000  0.0000  0.0000
atom =  39  type =  2  l = 2
 
 onsite density matrix
 
spin component  1
 
  0.9926  0.0000  0.0000  0.0000  0.0000
  0.0000  0.9926  0.0000  0.0000  0.0000
  0.0000  0.0000  0.9926  0.0000  0.0000
  0.0000  0.0000  0.0000  0.9926  0.0000
  0.0000  0.0000  0.0000  0.0000  0.9926
 
spin component  2
 
  0.9926  0.0000  0.0000  0.0000  0.0000
  0.0000  0.9926  0.0000  0.0000  0.0000
  0.0000  0.0000  0.9926  0.0000  0.0000
  0.0000  0.0000  0.0000  0.9926  0.0000
  0.0000  0.0000  0.0000  0.0000  0.9926
 
 occupancies and eigenvectors
 
  o =  0.9926  v =  1.0000  0.0000  0.0000  0.0000  0.0000  0.0000  0.0000  0.0000  0.0000  0.0000      0.0000  0.0000  0.0000  0.0000  0.0000  0.0000  0.0000  0.0000  0.0000  0.0000
  o =  0.9926  v =  0.0000  1.0000  0.0000  0.0000  0.0000  0.0000  0.0000  0.0000  0.0000  0.0000      0.0000  0.0000  0.0000  0.0000  0.0000  0.0000  0.0000  0.0000  0.0000  0.0000
  o =  0.9926  v =  0.0000  0.0000  1.0000  0.0000  0.0000  0.0000  0.0000  0.0000  0.0000  0.0000      0.0000  0.0000  0.0000  0.0000  0.0000  0.0000  0.0000  0.0000  0.0000  0.0000
  o =  0.9926  v =  0.0000  0.0000  0.0000  1.0000  0.0000  0.0000  0.0000  0.0000  0.0000  0.0000      0.0000  0.0000  0.0000  0.0000  0.0000  0.0000  0.0000  0.0000  0.0000  0.0000
  o =  0.9926  v =  0.0000  0.0000  0.0000  0.0000  1.0000  0.0000  0.0000  0.0000  0.0000  0.0000      0.0000  0.0000  0.0000  0.0000  0.0000  0.0000  0.0000  0.0000  0.0000  0.0000
  o =  0.9926  v =  0.0000  0.0000  0.0000  0.0000  0.0000  1.0000  0.0000  0.0000  0.0000  0.0000      0.0000  0.0000  0.0000  0.0000  0.0000  0.0000  0.0000  0.0000  0.0000  0.0000
  o =  0.9926  v =  0.0000  0.0000  0.0000  0.0000  0.0000  0.0000  1.0000  0.0000  0.0000  0.0000      0.0000  0.0000  0.0000  0.0000  0.0000  0.0000  0.0000  0.0000  0.0000  0.0000
  o =  0.9926  v =  0.0000  0.0000  0.0000  0.0000  0.0000  0.0000  0.0000  1.0000  0.0000  0.0000      0.0000  0.0000  0.0000  0.0000  0.0000  0.0000  0.0000  0.0000  0.0000  0.0000
  o =  0.9926  v =  0.0000  0.0000  0.0000  0.0000  0.0000  0.0000  0.0000  0.0000  1.0000  0.0000      0.0000  0.0000  0.0000  0.0000  0.0000  0.0000  0.0000  0.0000  0.0000  0.0000
  o =  0.9926  v =  0.0000  0.0000  0.0000  0.0000  0.0000  0.0000  0.0000  0.0000  0.0000  1.0000      0.0000  0.0000  0.0000  0.0000  0.0000  0.0000  0.0000  0.0000  0.0000  0.0000
atom =  40  type =  2  l = 2
 
 onsite density matrix
 
spin component  1
 
  0.9926  0.0000  0.0000  0.0000  0.0000
  0.0000  0.9926  0.0000  0.0000  0.0000
  0.0000  0.0000  0.9926  0.0000  0.0000
  0.0000  0.0000  0.0000  0.9926  0.0000
  0.0000  0.0000  0.0000  0.0000  0.9926
 
spin component  2
 
  0.9926  0.0000  0.0000  0.0000  0.0000
  0.0000  0.9926  0.0000  0.0000  0.0000
  0.0000  0.0000  0.9926  0.0000  0.0000
  0.0000  0.0000  0.0000  0.9926  0.0000
  0.0000  0.0000  0.0000  0.0000  0.9926
 
 occupancies and eigenvectors
 
  o =  0.9926  v =  1.0000  0.0000  0.0000  0.0000  0.0000  0.0000  0.0000  0.0000  0.0000  0.0000      0.0000  0.0000  0.0000  0.0000  0.0000  0.0000  0.0000  0.0000  0.0000  0.0000
  o =  0.9926  v =  0.0000  1.0000  0.0000  0.0000  0.0000  0.0000  0.0000  0.0000  0.0000  0.0000      0.0000  0.0000  0.0000  0.0000  0.0000  0.0000  0.0000  0.0000  0.0000  0.0000
  o =  0.9926  v =  0.0000  0.0000  1.0000  0.0000  0.0000  0.0000  0.0000  0.0000  0.0000  0.0000      0.0000  0.0000  0.0000  0.0000  0.0000  0.0000  0.0000  0.0000  0.0000  0.0000
  o =  0.9926  v =  0.0000  0.0000  0.0000  1.0000  0.0000  0.0000  0.0000  0.0000  0.0000  0.0000      0.0000  0.0000  0.0000  0.0000  0.0000  0.0000  0.0000  0.0000  0.0000  0.0000
  o =  0.9926  v =  0.0000  0.0000  0.0000  0.0000  1.0000  0.0000  0.0000  0.0000  0.0000  0.0000      0.0000  0.0000  0.0000  0.0000  0.0000  0.0000  0.0000  0.0000  0.0000  0.0000
  o =  0.9926  v =  0.0000  0.0000  0.0000  0.0000  0.0000  1.0000  0.0000  0.0000  0.0000  0.0000      0.0000  0.0000  0.0000  0.0000  0.0000  0.0000  0.0000  0.0000  0.0000  0.0000
  o =  0.9926  v =  0.0000  0.0000  0.0000  0.0000  0.0000  0.0000  1.0000  0.0000  0.0000  0.0000      0.0000  0.0000  0.0000  0.0000  0.0000  0.0000  0.0000  0.0000  0.0000  0.0000
  o =  0.9926  v =  0.0000  0.0000  0.0000  0.0000  0.0000  0.0000  0.0000  1.0000  0.0000  0.0000      0.0000  0.0000  0.0000  0.0000  0.0000  0.0000  0.0000  0.0000  0.0000  0.0000
  o =  0.9926  v =  0.0000  0.0000  0.0000  0.0000  0.0000  0.0000  0.0000  0.0000  1.0000  0.0000      0.0000  0.0000  0.0000  0.0000  0.0000  0.0000  0.0000  0.0000  0.0000  0.0000
  o =  0.9926  v =  0.0000  0.0000  0.0000  0.0000  0.0000  0.0000  0.0000  0.0000  0.0000  1.0000      0.0000  0.0000  0.0000  0.0000  0.0000  0.0000  0.0000  0.0000  0.0000  0.0000
atom =  41  type =  2  l = 2
 
 onsite density matrix
 
spin component  1
 
  0.9926  0.0000  0.0000  0.0000  0.0000
  0.0000  0.9926  0.0000  0.0000  0.0000
  0.0000  0.0000  0.9926  0.0000  0.0000
  0.0000  0.0000  0.0000  0.9926  0.0000
  0.0000  0.0000  0.0000  0.0000  0.9926
 
spin component  2
 
  0.9926  0.0000  0.0000  0.0000  0.0000
  0.0000  0.9926  0.0000  0.0000  0.0000
  0.0000  0.0000  0.9926  0.0000  0.0000
  0.0000  0.0000  0.0000  0.9926  0.0000
  0.0000  0.0000  0.0000  0.0000  0.9926
 
 occupancies and eigenvectors
 
  o =  0.9926  v =  1.0000  0.0000  0.0000  0.0000  0.0000  0.0000  0.0000  0.0000  0.0000  0.0000      0.0000  0.0000  0.0000  0.0000  0.0000  0.0000  0.0000  0.0000  0.0000  0.0000
  o =  0.9926  v =  0.0000  1.0000  0.0000  0.0000  0.0000  0.0000  0.0000  0.0000  0.0000  0.0000      0.0000  0.0000  0.0000  0.0000  0.0000  0.0000  0.0000  0.0000  0.0000  0.0000
  o =  0.9926  v =  0.0000  0.0000  1.0000  0.0000  0.0000  0.0000  0.0000  0.0000  0.0000  0.0000      0.0000  0.0000  0.0000  0.0000  0.0000  0.0000  0.0000  0.0000  0.0000  0.0000
  o =  0.9926  v =  0.0000  0.0000  0.0000  1.0000  0.0000  0.0000  0.0000  0.0000  0.0000  0.0000      0.0000  0.0000  0.0000  0.0000  0.0000  0.0000  0.0000  0.0000  0.0000  0.0000
  o =  0.9926  v =  0.0000  0.0000  0.0000  0.0000  1.0000  0.0000  0.0000  0.0000  0.0000  0.0000      0.0000  0.0000  0.0000  0.0000  0.0000  0.0000  0.0000  0.0000  0.0000  0.0000
  o =  0.9926  v =  0.0000  0.0000  0.0000  0.0000  0.0000  1.0000  0.0000  0.0000  0.0000  0.0000      0.0000  0.0000  0.0000  0.0000  0.0000  0.0000  0.0000  0.0000  0.0000  0.0000
  o =  0.9926  v =  0.0000  0.0000  0.0000  0.0000  0.0000  0.0000  1.0000  0.0000  0.0000  0.0000      0.0000  0.0000  0.0000  0.0000  0.0000  0.0000  0.0000  0.0000  0.0000  0.0000
  o =  0.9926  v =  0.0000  0.0000  0.0000  0.0000  0.0000  0.0000  0.0000  1.0000  0.0000  0.0000      0.0000  0.0000  0.0000  0.0000  0.0000  0.0000  0.0000  0.0000  0.0000  0.0000
  o =  0.9926  v =  0.0000  0.0000  0.0000  0.0000  0.0000  0.0000  0.0000  0.0000  1.0000  0.0000      0.0000  0.0000  0.0000  0.0000  0.0000  0.0000  0.0000  0.0000  0.0000  0.0000
  o =  0.9926  v =  0.0000  0.0000  0.0000  0.0000  0.0000  0.0000  0.0000  0.0000  0.0000  1.0000      0.0000  0.0000  0.0000  0.0000  0.0000  0.0000  0.0000  0.0000  0.0000  0.0000
atom =  42  type =  2  l = 2
 
 onsite density matrix
 
spin component  1
 
  0.9926  0.0000  0.0000  0.0000  0.0000
  0.0000  0.9926  0.0000  0.0000  0.0000
  0.0000  0.0000  0.9926  0.0000  0.0000
  0.0000  0.0000  0.0000  0.9926  0.0000
  0.0000  0.0000  0.0000  0.0000  0.9926
 
spin component  2
 
  0.9926  0.0000  0.0000  0.0000  0.0000
  0.0000  0.9926  0.0000  0.0000  0.0000
  0.0000  0.0000  0.9926  0.0000  0.0000
  0.0000  0.0000  0.0000  0.9926  0.0000
  0.0000  0.0000  0.0000  0.0000  0.9926
 
 occupancies and eigenvectors
 
  o =  0.9926  v =  1.0000  0.0000  0.0000  0.0000  0.0000  0.0000  0.0000  0.0000  0.0000  0.0000      0.0000  0.0000  0.0000  0.0000  0.0000  0.0000  0.0000  0.0000  0.0000  0.0000
  o =  0.9926  v =  0.0000  1.0000  0.0000  0.0000  0.0000  0.0000  0.0000  0.0000  0.0000  0.0000      0.0000  0.0000  0.0000  0.0000  0.0000  0.0000  0.0000  0.0000  0.0000  0.0000
  o =  0.9926  v =  0.0000  0.0000  1.0000  0.0000  0.0000  0.0000  0.0000  0.0000  0.0000  0.0000      0.0000  0.0000  0.0000  0.0000  0.0000  0.0000  0.0000  0.0000  0.0000  0.0000
  o =  0.9926  v =  0.0000  0.0000  0.0000  1.0000  0.0000  0.0000  0.0000  0.0000  0.0000  0.0000      0.0000  0.0000  0.0000  0.0000  0.0000  0.0000  0.0000  0.0000  0.0000  0.0000
  o =  0.9926  v =  0.0000  0.0000  0.0000  0.0000  1.0000  0.0000  0.0000  0.0000  0.0000  0.0000      0.0000  0.0000  0.0000  0.0000  0.0000  0.0000  0.0000  0.0000  0.0000  0.0000
  o =  0.9926  v =  0.0000  0.0000  0.0000  0.0000  0.0000  1.0000  0.0000  0.0000  0.0000  0.0000      0.0000  0.0000  0.0000  0.0000  0.0000  0.0000  0.0000  0.0000  0.0000  0.0000
  o =  0.9926  v =  0.0000  0.0000  0.0000  0.0000  0.0000  0.0000  1.0000  0.0000  0.0000  0.0000      0.0000  0.0000  0.0000  0.0000  0.0000  0.0000  0.0000  0.0000  0.0000  0.0000
  o =  0.9926  v =  0.0000  0.0000  0.0000  0.0000  0.0000  0.0000  0.0000  1.0000  0.0000  0.0000      0.0000  0.0000  0.0000  0.0000  0.0000  0.0000  0.0000  0.0000  0.0000  0.0000
  o =  0.9926  v =  0.0000  0.0000  0.0000  0.0000  0.0000  0.0000  0.0000  0.0000  1.0000  0.0000      0.0000  0.0000  0.0000  0.0000  0.0000  0.0000  0.0000  0.0000  0.0000  0.0000
  o =  0.9926  v =  0.0000  0.0000  0.0000  0.0000  0.0000  0.0000  0.0000  0.0000  0.0000  1.0000      0.0000  0.0000  0.0000  0.0000  0.0000  0.0000  0.0000  0.0000  0.0000  0.0000
atom =  43  type =  2  l = 2
 
 onsite density matrix
 
spin component  1
 
  0.9926  0.0000  0.0000  0.0000  0.0000
  0.0000  0.9926  0.0000  0.0000  0.0000
  0.0000  0.0000  0.9926  0.0000  0.0000
  0.0000  0.0000  0.0000  0.9926  0.0000
  0.0000  0.0000  0.0000  0.0000  0.9926
 
spin component  2
 
  0.9926  0.0000  0.0000  0.0000  0.0000
  0.0000  0.9926  0.0000  0.0000  0.0000
  0.0000  0.0000  0.9926  0.0000  0.0000
  0.0000  0.0000  0.0000  0.9926  0.0000
  0.0000  0.0000  0.0000  0.0000  0.9926
 
 occupancies and eigenvectors
 
  o =  0.9926  v =  1.0000  0.0000  0.0000  0.0000  0.0000  0.0000  0.0000  0.0000  0.0000  0.0000      0.0000  0.0000  0.0000  0.0000  0.0000  0.0000  0.0000  0.0000  0.0000  0.0000
  o =  0.9926  v =  0.0000  1.0000  0.0000  0.0000  0.0000  0.0000  0.0000  0.0000  0.0000  0.0000      0.0000  0.0000  0.0000  0.0000  0.0000  0.0000  0.0000  0.0000  0.0000  0.0000
  o =  0.9926  v =  0.0000  0.0000  1.0000  0.0000  0.0000  0.0000  0.0000  0.0000  0.0000  0.0000      0.0000  0.0000  0.0000  0.0000  0.0000  0.0000  0.0000  0.0000  0.0000  0.0000
  o =  0.9926  v =  0.0000  0.0000  0.0000  1.0000  0.0000  0.0000  0.0000  0.0000  0.0000  0.0000      0.0000  0.0000  0.0000  0.0000  0.0000  0.0000  0.0000  0.0000  0.0000  0.0000
  o =  0.9926  v =  0.0000  0.0000  0.0000  0.0000  1.0000  0.0000  0.0000  0.0000  0.0000  0.0000      0.0000  0.0000  0.0000  0.0000  0.0000  0.0000  0.0000  0.0000  0.0000  0.0000
  o =  0.9926  v =  0.0000  0.0000  0.0000  0.0000  0.0000  1.0000  0.0000  0.0000  0.0000  0.0000      0.0000  0.0000  0.0000  0.0000  0.0000  0.0000  0.0000  0.0000  0.0000  0.0000
  o =  0.9926  v =  0.0000  0.0000  0.0000  0.0000  0.0000  0.0000  1.0000  0.0000  0.0000  0.0000      0.0000  0.0000  0.0000  0.0000  0.0000  0.0000  0.0000  0.0000  0.0000  0.0000
  o =  0.9926  v =  0.0000  0.0000  0.0000  0.0000  0.0000  0.0000  0.0000  1.0000  0.0000  0.0000      0.0000  0.0000  0.0000  0.0000  0.0000  0.0000  0.0000  0.0000  0.0000  0.0000
  o =  0.9926  v =  0.0000  0.0000  0.0000  0.0000  0.0000  0.0000  0.0000  0.0000  1.0000  0.0000      0.0000  0.0000  0.0000  0.0000  0.0000  0.0000  0.0000  0.0000  0.0000  0.0000
  o =  0.9926  v =  0.0000  0.0000  0.0000  0.0000  0.0000  0.0000  0.0000  0.0000  0.0000  1.0000      0.0000  0.0000  0.0000  0.0000  0.0000  0.0000  0.0000  0.0000  0.0000  0.0000
atom =  44  type =  2  l = 2
 
 onsite density matrix
 
spin component  1
 
  0.9926  0.0000  0.0000  0.0000  0.0000
  0.0000  0.9926  0.0000  0.0000  0.0000
  0.0000  0.0000  0.9926  0.0000  0.0000
  0.0000  0.0000  0.0000  0.9926  0.0000
  0.0000  0.0000  0.0000  0.0000  0.9926
 
spin component  2
 
  0.9926  0.0000  0.0000  0.0000  0.0000
  0.0000  0.9926  0.0000  0.0000  0.0000
  0.0000  0.0000  0.9926  0.0000  0.0000
  0.0000  0.0000  0.0000  0.9926  0.0000
  0.0000  0.0000  0.0000  0.0000  0.9926
 
 occupancies and eigenvectors
 
  o =  0.9926  v =  1.0000  0.0000  0.0000  0.0000  0.0000  0.0000  0.0000  0.0000  0.0000  0.0000      0.0000  0.0000  0.0000  0.0000  0.0000  0.0000  0.0000  0.0000  0.0000  0.0000
  o =  0.9926  v =  0.0000  1.0000  0.0000  0.0000  0.0000  0.0000  0.0000  0.0000  0.0000  0.0000      0.0000  0.0000  0.0000  0.0000  0.0000  0.0000  0.0000  0.0000  0.0000  0.0000
  o =  0.9926  v =  0.0000  0.0000  1.0000  0.0000  0.0000  0.0000  0.0000  0.0000  0.0000  0.0000      0.0000  0.0000  0.0000  0.0000  0.0000  0.0000  0.0000  0.0000  0.0000  0.0000
  o =  0.9926  v =  0.0000  0.0000  0.0000  1.0000  0.0000  0.0000  0.0000  0.0000  0.0000  0.0000      0.0000  0.0000  0.0000  0.0000  0.0000  0.0000  0.0000  0.0000  0.0000  0.0000
  o =  0.9926  v =  0.0000  0.0000  0.0000  0.0000  1.0000  0.0000  0.0000  0.0000  0.0000  0.0000      0.0000  0.0000  0.0000  0.0000  0.0000  0.0000  0.0000  0.0000  0.0000  0.0000
  o =  0.9926  v =  0.0000  0.0000  0.0000  0.0000  0.0000  1.0000  0.0000  0.0000  0.0000  0.0000      0.0000  0.0000  0.0000  0.0000  0.0000  0.0000  0.0000  0.0000  0.0000  0.0000
  o =  0.9926  v =  0.0000  0.0000  0.0000  0.0000  0.0000  0.0000  1.0000  0.0000  0.0000  0.0000      0.0000  0.0000  0.0000  0.0000  0.0000  0.0000  0.0000  0.0000  0.0000  0.0000
  o =  0.9926  v =  0.0000  0.0000  0.0000  0.0000  0.0000  0.0000  0.0000  1.0000  0.0000  0.0000      0.0000  0.0000  0.0000  0.0000  0.0000  0.0000  0.0000  0.0000  0.0000  0.0000
  o =  0.9926  v =  0.0000  0.0000  0.0000  0.0000  0.0000  0.0000  0.0000  0.0000  1.0000  0.0000      0.0000  0.0000  0.0000  0.0000  0.0000  0.0000  0.0000  0.0000  0.0000  0.0000
  o =  0.9926  v =  0.0000  0.0000  0.0000  0.0000  0.0000  0.0000  0.0000  0.0000  0.0000  1.0000      0.0000  0.0000  0.0000  0.0000  0.0000  0.0000  0.0000  0.0000  0.0000  0.0000
atom =  45  type =  2  l = 2
 
 onsite density matrix
 
spin component  1
 
  0.9926  0.0000  0.0000  0.0000  0.0000
  0.0000  0.9926  0.0000  0.0000  0.0000
  0.0000  0.0000  0.9926  0.0000  0.0000
  0.0000  0.0000  0.0000  0.9926  0.0000
  0.0000  0.0000  0.0000  0.0000  0.9926
 
spin component  2
 
  0.9926  0.0000  0.0000  0.0000  0.0000
  0.0000  0.9926  0.0000  0.0000  0.0000
  0.0000  0.0000  0.9926  0.0000  0.0000
  0.0000  0.0000  0.0000  0.9926  0.0000
  0.0000  0.0000  0.0000  0.0000  0.9926
 
 occupancies and eigenvectors
 
  o =  0.9926  v =  1.0000  0.0000  0.0000  0.0000  0.0000  0.0000  0.0000  0.0000  0.0000  0.0000      0.0000  0.0000  0.0000  0.0000  0.0000  0.0000  0.0000  0.0000  0.0000  0.0000
  o =  0.9926  v =  0.0000  1.0000  0.0000  0.0000  0.0000  0.0000  0.0000  0.0000  0.0000  0.0000      0.0000  0.0000  0.0000  0.0000  0.0000  0.0000  0.0000  0.0000  0.0000  0.0000
  o =  0.9926  v =  0.0000  0.0000  1.0000  0.0000  0.0000  0.0000  0.0000  0.0000  0.0000  0.0000      0.0000  0.0000  0.0000  0.0000  0.0000  0.0000  0.0000  0.0000  0.0000  0.0000
  o =  0.9926  v =  0.0000  0.0000  0.0000  1.0000  0.0000  0.0000  0.0000  0.0000  0.0000  0.0000      0.0000  0.0000  0.0000  0.0000  0.0000  0.0000  0.0000  0.0000  0.0000  0.0000
  o =  0.9926  v =  0.0000  0.0000  0.0000  0.0000  1.0000  0.0000  0.0000  0.0000  0.0000  0.0000      0.0000  0.0000  0.0000  0.0000  0.0000  0.0000  0.0000  0.0000  0.0000  0.0000
  o =  0.9926  v =  0.0000  0.0000  0.0000  0.0000  0.0000  1.0000  0.0000  0.0000  0.0000  0.0000      0.0000  0.0000  0.0000  0.0000  0.0000  0.0000  0.0000  0.0000  0.0000  0.0000
  o =  0.9926  v =  0.0000  0.0000  0.0000  0.0000  0.0000  0.0000  1.0000  0.0000  0.0000  0.0000      0.0000  0.0000  0.0000  0.0000  0.0000  0.0000  0.0000  0.0000  0.0000  0.0000
  o =  0.9926  v =  0.0000  0.0000  0.0000  0.0000  0.0000  0.0000  0.0000  1.0000  0.0000  0.0000      0.0000  0.0000  0.0000  0.0000  0.0000  0.0000  0.0000  0.0000  0.0000  0.0000
  o =  0.9926  v =  0.0000  0.0000  0.0000  0.0000  0.0000  0.0000  0.0000  0.0000  1.0000  0.0000      0.0000  0.0000  0.0000  0.0000  0.0000  0.0000  0.0000  0.0000  0.0000  0.0000
  o =  0.9926  v =  0.0000  0.0000  0.0000  0.0000  0.0000  0.0000  0.0000  0.0000  0.0000  1.0000      0.0000  0.0000  0.0000  0.0000  0.0000  0.0000  0.0000  0.0000  0.0000  0.0000
atom =  46  type =  2  l = 2
 
 onsite density matrix
 
spin component  1
 
  0.9926  0.0000  0.0000  0.0000  0.0000
  0.0000  0.9926  0.0000  0.0000  0.0000
  0.0000  0.0000  0.9926  0.0000  0.0000
  0.0000  0.0000  0.0000  0.9926  0.0000
  0.0000  0.0000  0.0000  0.0000  0.9926
 
spin component  2
 
  0.9926  0.0000  0.0000  0.0000  0.0000
  0.0000  0.9926  0.0000  0.0000  0.0000
  0.0000  0.0000  0.9926  0.0000  0.0000
  0.0000  0.0000  0.0000  0.9926  0.0000
  0.0000  0.0000  0.0000  0.0000  0.9926
 
 occupancies and eigenvectors
 
  o =  0.9926  v =  1.0000  0.0000  0.0000  0.0000  0.0000  0.0000  0.0000  0.0000  0.0000  0.0000      0.0000  0.0000  0.0000  0.0000  0.0000  0.0000  0.0000  0.0000  0.0000  0.0000
  o =  0.9926  v =  0.0000  1.0000  0.0000  0.0000  0.0000  0.0000  0.0000  0.0000  0.0000  0.0000      0.0000  0.0000  0.0000  0.0000  0.0000  0.0000  0.0000  0.0000  0.0000  0.0000
  o =  0.9926  v =  0.0000  0.0000  1.0000  0.0000  0.0000  0.0000  0.0000  0.0000  0.0000  0.0000      0.0000  0.0000  0.0000  0.0000  0.0000  0.0000  0.0000  0.0000  0.0000  0.0000
  o =  0.9926  v =  0.0000  0.0000  0.0000  1.0000  0.0000  0.0000  0.0000  0.0000  0.0000  0.0000      0.0000  0.0000  0.0000  0.0000  0.0000  0.0000  0.0000  0.0000  0.0000  0.0000
  o =  0.9926  v =  0.0000  0.0000  0.0000  0.0000  1.0000  0.0000  0.0000  0.0000  0.0000  0.0000      0.0000  0.0000  0.0000  0.0000  0.0000  0.0000  0.0000  0.0000  0.0000  0.0000
  o =  0.9926  v =  0.0000  0.0000  0.0000  0.0000  0.0000  1.0000  0.0000  0.0000  0.0000  0.0000      0.0000  0.0000  0.0000  0.0000  0.0000  0.0000  0.0000  0.0000  0.0000  0.0000
  o =  0.9926  v =  0.0000  0.0000  0.0000  0.0000  0.0000  0.0000  1.0000  0.0000  0.0000  0.0000      0.0000  0.0000  0.0000  0.0000  0.0000  0.0000  0.0000  0.0000  0.0000  0.0000
  o =  0.9926  v =  0.0000  0.0000  0.0000  0.0000  0.0000  0.0000  0.0000  1.0000  0.0000  0.0000      0.0000  0.0000  0.0000  0.0000  0.0000  0.0000  0.0000  0.0000  0.0000  0.0000
  o =  0.9926  v =  0.0000  0.0000  0.0000  0.0000  0.0000  0.0000  0.0000  0.0000  1.0000  0.0000      0.0000  0.0000  0.0000  0.0000  0.0000  0.0000  0.0000  0.0000  0.0000  0.0000
  o =  0.9926  v =  0.0000  0.0000  0.0000  0.0000  0.0000  0.0000  0.0000  0.0000  0.0000  1.0000      0.0000  0.0000  0.0000  0.0000  0.0000  0.0000  0.0000  0.0000  0.0000  0.0000
atom =  47  type =  2  l = 2
 
 onsite density matrix
 
spin component  1
 
  0.9926  0.0000  0.0000  0.0000  0.0000
  0.0000  0.9926  0.0000  0.0000  0.0000
  0.0000  0.0000  0.9926  0.0000  0.0000
  0.0000  0.0000  0.0000  0.9926  0.0000
  0.0000  0.0000  0.0000  0.0000  0.9926
 
spin component  2
 
  0.9926  0.0000  0.0000  0.0000  0.0000
  0.0000  0.9926  0.0000  0.0000  0.0000
  0.0000  0.0000  0.9926  0.0000  0.0000
  0.0000  0.0000  0.0000  0.9926  0.0000
  0.0000  0.0000  0.0000  0.0000  0.9926
 
 occupancies and eigenvectors
 
  o =  0.9926  v =  1.0000  0.0000  0.0000  0.0000  0.0000  0.0000  0.0000  0.0000  0.0000  0.0000      0.0000  0.0000  0.0000  0.0000  0.0000  0.0000  0.0000  0.0000  0.0000  0.0000
  o =  0.9926  v =  0.0000  1.0000  0.0000  0.0000  0.0000  0.0000  0.0000  0.0000  0.0000  0.0000      0.0000  0.0000  0.0000  0.0000  0.0000  0.0000  0.0000  0.0000  0.0000  0.0000
  o =  0.9926  v =  0.0000  0.0000  1.0000  0.0000  0.0000  0.0000  0.0000  0.0000  0.0000  0.0000      0.0000  0.0000  0.0000  0.0000  0.0000  0.0000  0.0000  0.0000  0.0000  0.0000
  o =  0.9926  v =  0.0000  0.0000  0.0000  1.0000  0.0000  0.0000  0.0000  0.0000  0.0000  0.0000      0.0000  0.0000  0.0000  0.0000  0.0000  0.0000  0.0000  0.0000  0.0000  0.0000
  o =  0.9926  v =  0.0000  0.0000  0.0000  0.0000  1.0000  0.0000  0.0000  0.0000  0.0000  0.0000      0.0000  0.0000  0.0000  0.0000  0.0000  0.0000  0.0000  0.0000  0.0000  0.0000
  o =  0.9926  v =  0.0000  0.0000  0.0000  0.0000  0.0000  1.0000  0.0000  0.0000  0.0000  0.0000      0.0000  0.0000  0.0000  0.0000  0.0000  0.0000  0.0000  0.0000  0.0000  0.0000
  o =  0.9926  v =  0.0000  0.0000  0.0000  0.0000  0.0000  0.0000  1.0000  0.0000  0.0000  0.0000      0.0000  0.0000  0.0000  0.0000  0.0000  0.0000  0.0000  0.0000  0.0000  0.0000
  o =  0.9926  v =  0.0000  0.0000  0.0000  0.0000  0.0000  0.0000  0.0000  1.0000  0.0000  0.0000      0.0000  0.0000  0.0000  0.0000  0.0000  0.0000  0.0000  0.0000  0.0000  0.0000
  o =  0.9926  v =  0.0000  0.0000  0.0000  0.0000  0.0000  0.0000  0.0000  0.0000  1.0000  0.0000      0.0000  0.0000  0.0000  0.0000  0.0000  0.0000  0.0000  0.0000  0.0000  0.0000
  o =  0.9926  v =  0.0000  0.0000  0.0000  0.0000  0.0000  0.0000  0.0000  0.0000  0.0000  1.0000      0.0000  0.0000  0.0000  0.0000  0.0000  0.0000  0.0000  0.0000  0.0000  0.0000
    EDDIAG:  cpu time   38.4702: real time   45.2680
  RMM-DIIS:  cpu time    7.3229: real time    7.3391
    ORTHCH:  cpu time    4.7363: real time    4.7392
       DOS:  cpu time    0.0070: real time    0.0064
    --------------------------------------------
      LOOP:  cpu time   50.9753: real time   57.9837

 eigenvalue-minimisations  :  1952
 total energy-change (2. order) : 0.2165158E+02  (-0.2284890E+05)
 number of electron     402.0000000 magnetization 
 augmentation part      402.0000000 magnetization 

 Free energy of the ion-electron system (eV)
  ---------------------------------------------------
  alpha Z        PSCENC =      1390.87733343
  Ewald energy   TEWEN  =    -31377.02334497
  -Hartree energ DENC   =    -11041.50188653
  -exchange      EXHF   =         0.00000000
  -V(xc)+E(xc)   XCENC  =      1760.70987903
  PAW double counting   =     34622.81385408   -34943.27019848
  entropy T*S    EENTRO =        -0.22455930
  eigenvalues    EBANDS =     -2622.60772189
  atomic energy  EATOM  =     42231.87821999
  Solvation  Ediel_sol  =         0.00000000
  ---------------------------------------------------
  free energy    TOTEN  =        21.65157535 eV

  energy without entropy =       21.87613465  energy(sigma->0) =       21.76385500


--------------------------------------------------------------------------------------------------------




----------------------------------------- Iteration    1(   2)  ---------------------------------------


    EDDIAG:  cpu time   32.4351: real time   41.3401
  RMM-DIIS:  cpu time    6.1541: real time    7.1877
    ORTHCH:  cpu time    3.7794: real time    4.8921
       DOS:  cpu time    0.0040: real time    0.0044
    --------------------------------------------
      LOOP:  cpu time   42.4096: real time   53.4790

 eigenvalue-minimisations  :  1952
 total energy-change (2. order) : 0.5325476E+03  (-0.4448700E+04)
 number of electron     402.0000000 magnetization 
 augmentation part      402.0000000 magnetization 

 Free energy of the ion-electron system (eV)
  ---------------------------------------------------
  alpha Z        PSCENC =      1390.87733343
  Ewald energy   TEWEN  =    -31377.02334497
  -Hartree energ DENC   =    -11041.50188653
  -exchange      EXHF   =         0.00000000
  -V(xc)+E(xc)   XCENC  =      1760.70987903
  PAW double counting   =     34622.81385408   -34943.27019848
  entropy T*S    EENTRO =        -0.03964943
  eigenvalues    EBANDS =     -2090.24504566
  atomic energy  EATOM  =     42231.87821999
  Solvation  Ediel_sol  =         0.00000000
  ---------------------------------------------------
  free energy    TOTEN  =       554.19916146 eV

  energy without entropy =      554.23881089  energy(sigma->0) =      554.21898617


--------------------------------------------------------------------------------------------------------




----------------------------------------- Iteration    1(   3)  ---------------------------------------


    EDDIAG:  cpu time   44.0873: real time   44.1536
  RMM-DIIS:  cpu time    6.2461: real time    6.2615
    ORTHCH:  cpu time    5.2252: real time    5.2274
       DOS:  cpu time    0.0040: real time    0.0048
    --------------------------------------------
      LOOP:  cpu time   55.6305: real time   55.7595

 eigenvalue-minimisations  :  1952
 total energy-change (2. order) :-0.6657766E+03  (-0.1257628E+04)
 number of electron     402.0000000 magnetization 
 augmentation part      402.0000000 magnetization 

 Free energy of the ion-electron system (eV)
  ---------------------------------------------------
  alpha Z        PSCENC =      1390.87733343
  Ewald energy   TEWEN  =    -31377.02334497
  -Hartree energ DENC   =    -11041.50188653
  -exchange      EXHF   =         0.00000000
  -V(xc)+E(xc)   XCENC  =      1760.70987903
  PAW double counting   =     34622.81385408   -34943.27019848
  entropy T*S    EENTRO =        -0.06620585
  eigenvalues    EBANDS =     -2755.99509790
  atomic energy  EATOM  =     42231.87821999
  Solvation  Ediel_sol  =         0.00000000
  ---------------------------------------------------
  free energy    TOTEN  =      -111.57744720 eV

  energy without entropy =     -111.51124135  energy(sigma->0) =     -111.54434427


--------------------------------------------------------------------------------------------------------




----------------------------------------- Iteration    1(   4)  ---------------------------------------


    EDDIAG:  cpu time   40.3679: real time   40.5199
  RMM-DIIS:  cpu time   26.4230: real time   26.4522
    ORTHCH:  cpu time    5.0842: real time    5.0868
       DOS:  cpu time    0.0040: real time    0.0043
    --------------------------------------------
      LOOP:  cpu time   71.9471: real time   72.1797

 eigenvalue-minimisations  :  4725
 total energy-change (2. order) :-0.1638730E+03  (-0.4901197E+03)
 number of electron     402.0000000 magnetization 
 augmentation part      402.0000000 magnetization 

 Free energy of the ion-electron system (eV)
  ---------------------------------------------------
  alpha Z        PSCENC =      1390.87733343
  Ewald energy   TEWEN  =    -31377.02334497
  -Hartree energ DENC   =    -11041.50188653
  -exchange      EXHF   =         0.00000000
  -V(xc)+E(xc)   XCENC  =      1760.70987903
  PAW double counting   =     34622.81385408   -34943.27019848
  entropy T*S    EENTRO =        -0.01024568
  eigenvalues    EBANDS =     -2919.92409842
  atomic energy  EATOM  =     42231.87821999
  Solvation  Ediel_sol  =         0.00000000
  ---------------------------------------------------
  free energy    TOTEN  =      -275.45048755 eV

  energy without entropy =     -275.44024187  energy(sigma->0) =     -275.44536471


--------------------------------------------------------------------------------------------------------




----------------------------------------- Iteration    1(   5)  ---------------------------------------


    EDDIAG:  cpu time   47.6248: real time   47.7138
  RMM-DIIS:  cpu time   19.4140: real time   19.4447
    ORTHCH:  cpu time    6.6820: real time    6.6844
       DOS:  cpu time    0.0040: real time    0.0046
    CHARGE:  cpu time    1.0378: real time    1.0390
    MIXING:  cpu time    0.1180: real time    0.1171
    --------------------------------------------
      LOOP:  cpu time   74.9396: real time   75.1165

 eigenvalue-minimisations  :  5017
 total energy-change (2. order) :-0.5216980E+02  (-0.5778238E+02)
 number of electron     402.9999623 magnetization 
 augmentation part      139.3617750 magnetization 

 Broyden mixing:
  rms(total) = 0.39657E+01    rms(broyden)= 0.39642E+01
  rms(prec ) = 0.52478E+01
  weight for this iteration     100.00

 Free energy of the ion-electron system (eV)
  ---------------------------------------------------
  alpha Z        PSCENC =      1390.87733343
  Ewald energy   TEWEN  =    -31377.02334497
  -Hartree energ DENC   =    -11041.50188653
  -exchange      EXHF   =         0.00000000
  -V(xc)+E(xc)   XCENC  =      1760.70987903
  PAW double counting   =     34622.81385408   -34943.27019848
  entropy T*S    EENTRO =        -0.15696800
  eigenvalues    EBANDS =     -2971.94718094
  atomic energy  EATOM  =     42231.87821999
  Solvation  Ediel_sol  =         0.00000000
  ---------------------------------------------------
  free energy    TOTEN  =      -327.62029239 eV

  energy without entropy =     -327.46332439  energy(sigma->0) =     -327.54180839


--------------------------------------------------------------------------------------------------------




----------------------------------------- Iteration    1(   6)  ---------------------------------------


    POTLOK:  cpu time    0.9579: real time    1.0979
    SETDIJ:  cpu time    0.2090: real time    0.2091
atom =  33  type =  2  l = 2
 
 onsite density matrix
 
spin component  1
 
  1.0230  0.0000 -0.0168  0.0000  0.0000
  0.0000  1.0184  0.0000 -0.0159  0.0000
 -0.0168  0.0000  1.0134  0.0000  0.0000
  0.0000 -0.0159  0.0000  1.0184  0.0000
  0.0000  0.0000  0.0000  0.0000  1.0015
 
spin component  2
 
  1.0230  0.0000 -0.0168  0.0000  0.0000
  0.0000  1.0184  0.0000 -0.0159  0.0000
 -0.0168  0.0000  1.0134  0.0000  0.0000
  0.0000 -0.0159  0.0000  1.0184  0.0000
  0.0000  0.0000  0.0000  0.0000  1.0015
 
 occupancies and eigenvectors
 
  o =  1.0007  v = -0.6026  0.0000 -0.7980  0.0000  0.0000  0.0000  0.0000  0.0000  0.0000  0.0000      0.0000  0.0000  0.0000  0.0000  0.0000  0.0000  0.0000  0.0000  0.0000  0.0000
  o =  1.0007  v =  0.0000  0.0000  0.0000  0.0000  0.0000 -0.6026  0.0000 -0.7980  0.0000  0.0000      0.0000  0.0000  0.0000  0.0000  0.0000  0.0000  0.0000  0.0000  0.0000  0.0000
  o =  1.0015  v =  0.0000  0.0000  0.0000  0.0000 -1.0000  0.0000  0.0000  0.0000  0.0000  0.0000      0.0000  0.0000  0.0000  0.0000  0.0000  0.0000  0.0000  0.0000  0.0000  0.0000
  o =  1.0015  v =  0.0000  0.0000  0.0000  0.0000  0.0000  0.0000  0.0000  0.0000  0.0000 -1.0000      0.0000  0.0000  0.0000  0.0000  0.0000  0.0000  0.0000  0.0000  0.0000  0.0000
  o =  1.0025  v =  0.0000 -0.7071  0.0000 -0.7071  0.0000  0.0000  0.0000  0.0000  0.0000  0.0000      0.0000  0.0000  0.0000  0.0000  0.0000  0.0000  0.0000  0.0000  0.0000  0.0000
[...]
    161       3.3551      2.00000
    162       3.4590      2.00000
    163       3.5478      2.00000
    164       3.6263      2.00000
    165       3.6954      2.00000
    166       3.7446      2.00000
    167       3.7696      2.00000
    168       3.7842      2.00000
    169       3.8586      2.00000
    170       3.9219      2.00000
    171       3.9234      2.00000
    172       3.9564      2.00000
    173       3.9983      2.00000
    174       4.0535      2.00000
    175       4.1174      2.00000
    176       4.1942      2.00000
    177       4.2080      2.00000
    178       4.2368      2.00000
    179       4.3043      2.00000
    180       4.3276      2.00000
    181       4.3610      2.00000
    182       4.4274      2.00000
    183       4.4841      2.00000
    184       4.5253      2.00000
    185       4.5877      2.00000
    186       4.6299      2.00000
    187       4.6755      2.00000
    188       4.6886      2.00000
    189       4.7008      2.00000
    190       4.7441      2.00000
    191       4.7473      2.00000
    192       4.8130      2.00000
    193       4.8647      2.00000
    194       4.9465      2.00000
    195       5.0030      2.00000
    196       5.0528      2.00000
    197       5.1499      1.99993
    198       5.1660      1.99983
    199       5.2932      1.94993
    200       5.3342      1.83261
    201       5.3534      1.73247
    202       5.4357      0.95622
    203       5.4758      0.53327
    204       9.6022      0.00000
    205      10.2334      0.00000
    206      10.3128      0.00000
    207      10.6978      0.00000
    208      10.8428      0.00000
    209      11.0587      0.00000
    210      11.1206      0.00000
    211      11.4112      0.00000
    212      11.6032      0.00000
    213      11.7639      0.00000
    214      11.7900      0.00000
    215      12.2034      0.00000
    216      12.2135      0.00000
    217      12.6216      0.00000
    218      12.9212      0.00000
    219      13.6669      0.00000
    220      13.8098      0.00000
    221      13.9074      0.00000
    222      13.9806      0.00000
    223      14.0590      0.00000
    224      14.1012      0.00000
    225      14.2786      0.00000
    226      14.4475      0.00000
    227      14.5614      0.00000
    228      14.7135      0.00000
    229      14.7162      0.00000
    230      14.9148      0.00000
    231      15.0585      0.00000
    232      15.1035      0.00000
    233      15.1446      0.00000
    234      15.2122      0.00000
    235      15.2932      0.00000
    236      15.3389      0.00000
    237      15.3824      0.00000
    238      15.4816      0.00000
    239      15.4983      0.00000
    240      15.6983      0.00000
    241      16.0015      0.00000
    242      16.2780      0.00000
    243      16.7004      0.00000
    244      16.9423      0.00000


--------------------------------------------------------------------------------------------------------


 soft charge-density along one line, spin component           1
         0         1         2         3         4         5         6         7         8         9
 total charge-density along one line
 
 pseudopotential strength for first ion, spin component:           1
 11.844 -14.386   0.015   0.033  -0.015  -0.019  -0.042   0.019
-14.386  17.489  -0.019  -0.043   0.019   0.024   0.054  -0.024
  0.015  -0.019  -7.892   0.017   0.042   9.364  -0.022  -0.056
  0.033  -0.043   0.017  -7.903  -0.017  -0.022   9.379   0.022
 -0.015   0.019   0.042  -0.017  -7.892  -0.056   0.022   9.364
 -0.019   0.024   9.364  -0.022  -0.056 -10.927   0.030   0.075
 -0.042   0.054  -0.022   9.379   0.022   0.030 -10.948  -0.030
  0.019  -0.024  -0.056   0.022   9.364   0.075  -0.030 -10.927
 total augmentation occupancy for first ion, spin component:           1
  2.545   0.324  -0.043  -0.114   0.043  -0.017  -0.044   0.017
  0.324   0.080  -0.049  -0.113   0.049  -0.008  -0.020   0.008
 -0.043  -0.049   2.034  -0.080  -0.084   0.216  -0.040  -0.067
 -0.114  -0.113  -0.080   1.892   0.080  -0.040   0.186   0.040
  0.043   0.049  -0.084   0.080   2.034  -0.067   0.040   0.216
 -0.017  -0.008   0.216  -0.040  -0.067   0.031  -0.010  -0.017
 -0.044  -0.020  -0.040   0.186   0.040  -0.010   0.025   0.010
  0.017   0.008  -0.067   0.040   0.216  -0.017   0.010   0.031


------------------------ aborting loop because EDIFF is reached ----------------------------------------


    CHARGE:  cpu time    0.6529: real time    0.6534
    FORLOC:  cpu time    0.0380: real time    0.0380
    FORNL :  cpu time   16.3805: real time   16.3883
    STRESS:  cpu time   16.3095: real time   16.3585
    FORCOR:  cpu time    0.1960: real time    0.1971
    FORHAR:  cpu time    0.1060: real time    0.1052
    MIXING:  cpu time    0.1490: real time    0.1494
    OFIELD:  cpu time    0.0000: real time    0.0000

  FORCE on cell =-STRESS in cart. coord.  units (eV):
  Direction    XX          YY          ZZ          XY          YZ          ZX
  --------------------------------------------------------------------------------------
  Alpha Z  1390.87733  1390.87733  1390.87733
  Ewald  -11994.14817-11994.14817 -7201.16983  -178.62604     0.00000     0.00000
  Hartree  2919.44067  2919.44067  5677.61728   -91.08947     0.00000     0.00000
  E(xc)   -2048.14182 -2048.14182 -2043.48133    -0.31960     0.00000     0.00000
  Local     969.76724   969.76724 -6450.41829   264.44593     0.00000     0.00000
  n-local    54.72855    54.38605   126.74748    -7.24293    -0.26441    -0.27300
  augment  2992.33257  2992.33257  2967.98611     1.81265     0.00000     0.00000
  Kinetic  5732.69937  5734.09294  5544.31380    10.28654     0.97743     1.04549
  Fock        0.00000     0.00000     0.00000     0.00000     0.00000     0.00000
  -------------------------------------------------------------------------------------
  Total      18.08128    18.08128    12.47255    -0.73258     0.00000     0.00000
  in kB      51.64032    51.64032    35.62173    -2.09226     0.00000     0.00000
  external pressure =       46.30 kB  Pullay stress =        0.00 kB


 VOLUME and BASIS-vectors are now :
 -----------------------------------------------------------------------------
  energy-cutoff  :      480.00
  volume of cell :      560.98
      direct lattice vectors                 reciprocal lattice vectors
     9.432027167  0.000000000  0.000000000     0.106021747  0.000000000  0.000000000
     0.000000000  9.432027167  0.000000000     0.000000000  0.106021747  0.000000000
     0.000000000  0.000000000  6.305806843     0.000000000  0.000000000  0.158583989

  length of vectors
     9.432027167  9.432027167  6.305806843     0.106021747  0.106021747  0.158583989


 FORCES acting on ions
    electron-ion (+dipol)            ewald-force                    non-local-force                 convergence-correction
 -----------------------------------------------------------------------------------------------
   0.963E+02 -.963E+02 -.194E+03   -.102E+03 0.102E+03 0.208E+03   0.618E+01 -.618E+01 -.137E+02   -.113E-01 0.113E-01 0.109E-01
   0.505E+02 -.505E+02 -.474E+01   -.533E+02 0.533E+02 0.499E+01   0.274E+01 -.274E+01 -.244E+00   -.826E-02 0.826E-02 -.775E-02
   0.227E+02 -.811E+02 -.116E+02   -.260E+02 0.841E+02 0.115E+02   0.334E+01 -.290E+01 0.891E-01   -.228E-01 -.232E-01 0.293E-02
   -.340E+02 0.749E+02 0.577E-06   0.315E+02 -.768E+02 0.163E-15   0.251E+01 0.194E+01 -.108E-18   -.221E-02 -.605E-02 -.128E-11
   -.749E+02 0.340E+02 -.577E-06   0.768E+02 -.315E+02 -.434E-17   -.194E+01 -.251E+01 -.108E-18   0.605E-02 0.221E-02 0.413E-11
   -.963E+02 0.963E+02 0.194E+03   0.102E+03 -.102E+03 -.208E+03   -.618E+01 0.618E+01 0.137E+02   0.113E-01 -.113E-01 -.109E-01
   -.505E+02 0.505E+02 0.474E+01   0.533E+02 -.533E+02 -.499E+01   -.274E+01 0.274E+01 0.244E+00   0.826E-02 -.826E-02 0.775E-02
   0.835E+01 0.486E+02 0.154E-05   -.112E+02 -.485E+02 -.326E-13   0.281E+01 -.442E-01 -.217E-18   0.709E-01 -.803E-01 0.393E-11
   -.835E+01 -.486E+02 -.154E-05   0.112E+02 0.485E+02 -.301E-13   -.281E+01 0.442E-01 0.217E-18   -.709E-01 0.803E-01 0.308E-11
   -.486E+02 -.835E+01 -.154E-05   0.485E+02 0.112E+02 0.275E-13   0.442E-01 -.281E+01 -.217E-18   0.803E-01 -.709E-01 0.374E-11
   -.505E+02 0.505E+02 -.474E+01   0.533E+02 -.533E+02 0.499E+01   -.274E+01 0.274E+01 -.244E+00   0.826E-02 -.826E-02 -.775E-02
   -.554E+00 -.554E+00 0.393E-05   0.370E+00 0.370E+00 -.305E-15   0.197E+00 0.197E+00 0.000E+00   -.127E-01 -.127E-01 0.357E-11
   -.251E+03 -.251E+03 0.258E-05   0.271E+03 0.271E+03 -.106E-13   -.199E+02 -.199E+02 0.000E+00   -.243E-01 -.243E-01 -.412E-11
   0.227E+02 -.811E+02 0.116E+02   -.260E+02 0.841E+02 -.115E+02   0.334E+01 -.290E+01 -.891E-01   -.228E-01 -.232E-01 -.293E-02
   -.811E+02 0.227E+02 0.116E+02   0.841E+02 -.260E+02 -.115E+02   -.290E+01 0.334E+01 -.891E-01   -.232E-01 -.228E-01 -.293E-02
   0.115E+02 0.115E+02 -.174E-04   -.133E+02 -.133E+02 -.336E-14   0.177E+01 0.177E+01 0.000E+00   -.577E-02 -.577E-02 -.116E-11
   -.931E+02 -.931E+02 0.136E-05   0.974E+02 0.974E+02 0.701E-13   -.424E+01 -.424E+01 0.000E+00   -.194E-01 -.194E-01 -.272E-11
   -.963E+02 0.963E+02 -.194E+03   0.102E+03 -.102E+03 0.208E+03   -.618E+01 0.618E+01 -.137E+02   0.113E-01 -.113E-01 0.109E-01
   0.486E+02 0.835E+01 0.154E-05   -.485E+02 -.112E+02 0.190E-14   -.442E-01 0.281E+01 0.217E-18   -.803E-01 0.709E-01 0.544E-12
   -.811E+02 0.227E+02 -.116E+02   0.841E+02 -.260E+02 0.115E+02   -.290E+01 0.334E+01 0.891E-01   -.232E-01 -.228E-01 0.293E-02
   -.115E+02 -.115E+02 0.174E-04   0.133E+02 0.133E+02 -.135E-14   -.177E+01 -.177E+01 0.000E+00   0.577E-02 0.577E-02 0.320E-11
   0.963E+02 -.963E+02 0.194E+03   -.102E+03 0.102E+03 -.208E+03   0.618E+01 -.618E+01 0.137E+02   -.113E-01 0.113E-01 -.109E-01
   0.505E+02 -.505E+02 0.474E+01   -.533E+02 0.533E+02 -.499E+01   0.274E+01 -.274E+01 0.244E+00   -.826E-02 0.826E-02 0.775E-02
   0.340E+02 -.749E+02 -.577E-06   -.315E+02 0.768E+02 -.474E-14   -.251E+01 -.194E+01 0.108E-18   0.221E-02 0.605E-02 0.345E-12
   0.931E+02 0.931E+02 -.136E-05   -.974E+02 -.974E+02 -.447E-14   0.424E+01 0.424E+01 0.000E+00   0.194E-01 0.194E-01 0.186E-11
   0.251E+03 0.251E+03 -.258E-05   -.271E+03 -.271E+03 0.183E-14   0.199E+02 0.199E+02 0.000E+00   0.243E-01 0.243E-01 -.329E-11
   0.749E+02 -.340E+02 0.577E-06   -.768E+02 0.315E+02 -.483E-14   0.194E+01 0.251E+01 0.108E-18   -.605E-02 -.221E-02 -.445E-13
   -.227E+02 0.811E+02 0.116E+02   0.260E+02 -.841E+02 -.115E+02   -.334E+01 0.290E+01 -.891E-01   0.228E-01 0.232E-01 -.293E-02
   0.811E+02 -.227E+02 -.116E+02   -.841E+02 0.260E+02 0.115E+02   0.290E+01 -.334E+01 0.891E-01   0.232E-01 0.228E-01 0.293E-02
   -.227E+02 0.811E+02 -.116E+02   0.260E+02 -.841E+02 0.115E+02   -.334E+01 0.290E+01 0.891E-01   0.228E-01 0.232E-01 0.293E-02
   0.554E+00 0.554E+00 -.393E-05   -.370E+00 -.370E+00 0.148E-14   -.197E+00 -.197E+00 0.000E+00   0.127E-01 0.127E-01 -.249E-11
   0.811E+02 -.227E+02 0.116E+02   -.841E+02 0.260E+02 -.115E+02   0.290E+01 -.334E+01 -.891E-01   0.232E-01 0.228E-01 -.293E-02
   0.369E-11 -.578E-11 -.327E-12   0.246E-10 0.249E-10 -.961E-14   0.000E+00 0.000E+00 0.000E+00   -.126E-11 0.512E-11 0.127E-11
   -.124E+03 -.124E+03 -.327E+02   0.126E+03 0.126E+03 0.359E+02   -.243E+01 -.243E+01 -.324E+01   -.281E-01 -.281E-01 0.236E-01
   0.124E+03 0.124E+03 0.327E+02   -.126E+03 -.126E+03 -.359E+02   0.243E+01 0.243E+01 0.324E+01   0.281E-01 0.281E-01 -.236E-01
   0.124E-12 0.176E-12 0.111E-11   0.252E-10 0.252E-10 0.982E-13   0.000E+00 0.000E+00 0.000E+00   0.747E-12 -.269E-11 0.471E-12
   -.124E+03 -.124E+03 0.327E+02   0.126E+03 0.126E+03 -.359E+02   -.243E+01 -.243E+01 0.324E+01   -.281E-01 -.281E-01 -.236E-01
   -.464E-12 0.149E-11 0.104E-11   -.980E-11 -.919E-11 -.866E-13   0.000E+00 0.000E+00 0.000E+00   0.137E-11 0.413E-11 0.404E-11
   0.124E+03 0.124E+03 -.327E+02   -.126E+03 -.126E+03 0.359E+02   0.243E+01 0.243E+01 -.324E+01   0.281E-01 0.281E-01 0.236E-01
   0.128E+03 -.128E+03 -.684E+02   -.131E+03 0.131E+03 0.679E+02   0.259E+01 -.259E+01 0.563E+00   0.229E-01 -.229E-01 -.149E-01
   -.128E+03 0.128E+03 -.684E+02   0.131E+03 -.131E+03 0.679E+02   -.259E+01 0.259E+01 0.563E+00   -.229E-01 0.229E-01 -.149E-01
   0.154E-11 -.489E-12 -.663E-11   -.949E-11 -.975E-11 -.380E-13   0.000E+00 0.000E+00 0.000E+00   0.242E-11 -.399E-11 0.394E-11
   -.386E-12 0.153E-11 -.262E-12   -.962E-11 -.938E-11 0.354E-13   0.000E+00 0.000E+00 0.000E+00   0.584E-11 0.349E-11 0.316E-11
   0.128E+03 -.128E+03 0.684E+02   -.131E+03 0.131E+03 -.679E+02   0.259E+01 -.259E+01 -.563E+00   0.229E-01 -.229E-01 0.149E-01
   -.128E+03 0.128E+03 0.684E+02   0.131E+03 -.131E+03 -.679E+02   -.259E+01 0.259E+01 -.563E+00   -.229E-01 0.229E-01 0.149E-01
   0.159E-11 -.397E-12 0.550E-11   -.945E-11 -.992E-11 -.888E-14   0.000E+00 0.000E+00 0.000E+00   0.742E-11 -.465E-11 -.336E-11
   0.305E-11 -.657E-11 0.134E-11   0.252E-10 0.253E-10 0.535E-14   0.000E+00 0.000E+00 0.000E+00   -.748E-12 0.875E-11 -.367E-12
 -----------------------------------------------------------------------------------------------
   -.331E-10 -.571E-10 0.304E-10   -.199E-12 -.141E-13 -.462E-13   -.488E-14 -.178E-14 -.888E-15   0.235E-10 -.687E-11 0.161E-11
 
 
 POSITION                                       TOTAL-FORCE (eV/Angst)
 -----------------------------------------------------------------------------------
      0.96599      8.46604      4.58311         0.002634     -0.002634     -0.000754
      3.79796      5.63407      4.72621         0.005909     -0.005909      0.001031
      8.52004      5.62650      4.73032         0.014574      0.015421      0.000584
      6.13748      1.45860      0.00000        -0.010383      0.009107      0.000000
      7.97343      3.29455      0.00000        -0.009107      0.010383      0.000000
      8.46604      0.96599      1.72270        -0.002634      0.002634      0.000754
      5.63407      3.79796      1.57960        -0.005909      0.005909     -0.001031
      6.08490      1.48805      3.15290        -0.018282      0.014380      0.000000
      3.34713      7.94398      3.15290         0.018282     -0.014380      0.000000
      7.94398      3.34713      3.15290        -0.014380      0.018282      0.000000
      5.63407      3.79796      4.72621        -0.005909      0.005909      0.001031
      6.13032      6.13032      0.00000        -0.000326     -0.000326      0.000000
      7.95859      7.95859      0.00000         0.000119      0.000119      0.000000
      8.52004      5.62650      1.57549         0.014574      0.015421     -0.000584
      5.62650      8.52004      1.57549         0.015421      0.014574     -0.000584
      6.16237      6.16237      3.15290         0.000156      0.000156      0.000000
      7.97562      7.97562      3.15290         0.001792      0.001792      0.000000
      8.46604      0.96599      4.58311        -0.002634      0.002634     -0.000754
      1.48805      6.08490      3.15290         0.014380     -0.018282      0.000000
      5.62650      8.52004      4.73032         0.015421      0.014574      0.000584
      3.26966      3.26966      3.15290        -0.000156     -0.000156      0.000000
      0.96599      8.46604      1.72270         0.002634     -0.002634      0.000754
      3.79796      5.63407      1.57960         0.005909     -0.005909     -0.001031
      3.29455      7.97343      0.00000         0.010383     -0.009107      0.000000
      1.45641      1.45641      3.15290        -0.001792     -0.001792      0.000000
      1.47343      1.47343      0.00000        -0.000119     -0.000119      0.000000
      1.45860      6.13748      0.00000         0.009107     -0.010383      0.000000
      0.91199      3.80553      1.57549        -0.014574     -0.015421     -0.000584
      3.80553      0.91199      4.73032        -0.015421     -0.014574      0.000584
      0.91199      3.80553      4.73032        -0.014574     -0.015421      0.000584
      3.30170      3.30170      0.00000         0.000326      0.000326      0.000000
      3.80553      0.91199      1.57549        -0.015421     -0.014574     -0.000584
      4.71601      4.71601      3.15290         0.000000      0.000000      0.000000
      7.08911      7.08911      4.74673         0.019631      0.019631     -0.000274
      2.34292      2.34292      1.55907        -0.019631     -0.019631      0.000274
      0.00000      0.00000      3.15290         0.000000      0.000000      0.000000
      7.08911      7.08911      1.55907         0.019631      0.019631      0.000274
      0.00000      4.71601      3.15290         0.000000      0.000000      0.000000
      2.34292      2.34292      4.74673        -0.019631     -0.019631     -0.000274
      2.35231      7.07972      4.72834        -0.002784      0.002784      0.000794
      7.07972      2.35231      4.72834         0.002784     -0.002784      0.000794
      4.71601      0.00000      3.15290         0.000000      0.000000      0.000000
      0.00000      4.71601      0.00000         0.000000      0.000000      0.000000
      2.35231      7.07972      1.57747        -0.002784      0.002784     -0.000794
      7.07972      2.35231      1.57747         0.002784     -0.002784     -0.000794
      4.71601      0.00000      0.00000         0.000000      0.000000      0.000000
      4.71601      4.71601      0.00000         0.000000      0.000000      0.000000
 -----------------------------------------------------------------------------------
    total drift:                                0.000000      0.000000      0.000000


--------------------------------------------------------------------------------------------------------



  FREE ENERGIE OF THE ION-ELECTRON SYSTEM (eV)
  ---------------------------------------------------
  free  energy   TOTEN  =      -292.46329446 eV

  energy  without entropy=     -292.34197456  energy(sigma->0) =     -292.40263451
 
 d Force = 0.2063444E-02[ 0.135E-02, 0.278E-02]  d Energy = 0.1991690E-02 0.718E-04
 d Force =-0.2650642E+01[-0.265E+01,-0.265E+01]  d Ewald  =-0.2650633E+01-0.921E-05


--------------------------------------------------------------------------------------------------------


    POTLOK:  cpu time    0.3080: real time    0.3077


--------------------------------------------------------------------------------------------------------


 Quasi-Newton relaxation of ions (Broydens 2nd method)
  g(Force)  = 0.484E-03   g(Stress)= 0.000E+00

 retain information from N=  4 steps
 eigenvalues of (default step * inverse Hessian matrix)
  average eigenvalue of G=   3.9179
 eigenvalue spectrum of G is  6.3462  6.3462  1.4896  1.4896


--------------------------------------------------------------------------------------------------------


  
 reached required accuracy - stopping structural energy minimisation
 writing wavefunctions
     LOOP+:  cpu time  271.0968: real time  329.1805
    4ORBIT:  cpu time    0.0000: real time    0.0000

 total amount of memory used by VASP on root node    52824. kBytes
========================================================================

   base      :      30000. kBytes
   nonl-proj :       5182. kBytes
   fftplans  :       1450. kBytes
   grid      :       2326. kBytes
   one-center:         93. kBytes
   wavefun   :      13773. kBytes
 
  
  
 General timing and accounting informations for this job:
 ========================================================
  
                  Total CPU time used (sec):     4760.178
                            User time (sec):     4715.163
                          System time (sec):       45.015
                         Elapsed time (sec):     5141.614
  
                   Maximum memory used (kb):       66836.
                   Average memory used (kb):           0.
  
                          Minor page faults:        10707
                          Major page faults:            0
                 Voluntary context switches:         2257
