 running on   32 total cores
 distrk:  each k-point on   32 cores,    1 groups
 distr:  one band on    8 cores,    4 groups
 using from now: INCAR     
 vasp.5.4.1 05Feb16 (build Dec 31 2016 05:41:53) complex                        
  
 POSCAR found type information on POSCAR  O  Sn
 POSCAR found :  2 types and      47 ions
 scaLAPACK will be used

 ----------------------------------------------------------------------------- 
|                                                                             |
|  ADVICE TO THIS USER RUNNING 'VASP/VAMP'   (HEAR YOUR MASTER'S VOICE ...):  |
|                                                                             |
|      You have a (more or less) 'large supercell' and for larger cells       |
|      it might be more efficient to use real space projection opertators     |
|      So try LREAL= Auto  in the INCAR   file.                               |
|      Mind: At the moment your POTCAR file does not contain real space       |
|       projectors, and has to be modified,  BUT if you                       |
|      want to do an extremely  accurate calculation you might also keep the  |
|      reciprocal projection scheme          (i.e. LREAL=.FALSE.)             |
|                                                                             |
 ----------------------------------------------------------------------------- 

 LDA part: xc-table for Pade appr. of Perdew
 POSCAR, INCAR and KPOINTS ok, starting setup
 WARNING: small aliasing (wrap around) errors must be expected
 FFT: planning ...
 WAVECAR not read
 entering main loop
       N       E                     dE             d eps       ncg     rms          rms(c)
RMM:   1     0.177644662279E+02    0.17764E+02   -0.23006E+05  1952   0.234E+03
RMM:   2     0.566111856691E+03    0.54835E+03   -0.44763E+04  1952   0.432E+02
RMM:   3    -0.103903772826E+03   -0.67002E+03   -0.12701E+04  1952   0.209E+02
RMM:   4    -0.268104425387E+03   -0.16420E+03   -0.49865E+03  4729   0.159E+02
RMM:   5    -0.324561684736E+03   -0.56457E+02   -0.60720E+02  5027   0.393E+01BRMIX: very serious problems
 the old and the new charge density differ
 old charge density:   402.00000 new  403.99996
    0.406E+01
RMM:   6    -0.283784065936E+03    0.40778E+02   -0.19867E+02  4677   0.255E+01    0.167E+01
RMM:   7    -0.285940108425E+03   -0.21560E+01   -0.38035E+01  5115   0.859E+00    0.941E+00
RMM:   8    -0.286037482680E+03   -0.97374E-01   -0.56061E+00  4695   0.500E+00    0.483E+00
RMM:   9    -0.286084907430E+03   -0.47425E-01   -0.14427E+00  4846   0.195E+00    0.507E+00
RMM:  10    -0.285934378284E+03    0.15053E+00   -0.43581E-01  4676   0.122E+00    0.169E+00
RMM:  11    -0.285918642578E+03    0.15736E-01   -0.16529E-01  4716   0.732E-01    0.518E-01
RMM:  12    -0.285921559577E+03   -0.29170E-02   -0.26304E-02  4718   0.263E-01    0.422E-01
RMM:  13    -0.285920148426E+03    0.14112E-02   -0.41301E-03  4197   0.108E-01    0.147E-01
RMM:  14    -0.285920103409E+03    0.45017E-04   -0.10439E-03  3307   0.475E-02    0.530E-02
RMM:  15    -0.285920096912E+03    0.64972E-05   -0.40580E-04  3107   0.359E-02
   1 F= -.28592010E+03 E0= -.28586608E+03  d E =-.285920E+03
 BRION: g(F)=  0.255E+01 g(S)=  0.000E+00
 bond charge predicted
       N       E                     dE             d eps       ncg     rms          rms(c)
RMM:   1    -0.289383282874E+03   -0.34632E+01   -0.73016E+02  4600   0.562E+01    0.926E+00
RMM:   2    -0.286552874315E+03    0.28304E+01   -0.28180E+01  4762   0.130E+01    0.681E+00
RMM:   3    -0.286526166154E+03    0.26708E-01   -0.38012E+00  5107   0.386E+00    0.476E+00
RMM:   4    -0.286234122082E+03    0.29204E+00   -0.32243E-01  4849   0.118E+00    0.293E+00
RMM:   5    -0.286213493484E+03    0.20629E-01   -0.21866E-01  4797   0.718E-01    0.218E+00
RMM:   6    -0.286189404188E+03    0.24089E-01   -0.20129E-02  4649   0.294E-01    0.135E+00
RMM:   7    -0.286182754051E+03    0.66501E-02   -0.40186E-02  4579   0.365E-01    0.508E-01
RMM:   8    -0.286181393184E+03    0.13609E-02   -0.53446E-03  4424   0.133E-01    0.391E-01
RMM:   9    -0.286179827949E+03    0.15652E-02   -0.11593E-03  4004   0.642E-02    0.106E-01
RMM:  10    -0.286179887298E+03   -0.59349E-04   -0.32680E-04  3065   0.375E-02
   2 F= -.28617989E+03 E0= -.28612836E+03  d E =-.259790E+00
 BRION: g(F)=  0.221E+01 g(S)=  0.000E+00 retain N=  1 mean eig= 0.52
 eig:   0.521
 bond charge predicted
       N       E                     dE             d eps       ncg     rms          rms(c)
RMM:   1    -0.287417447871E+03   -0.12376E+01   -0.16845E+02  4474   0.259E+01    0.365E+00
RMM:   2    -0.286780969376E+03    0.63648E+00   -0.67158E+00  4667   0.675E+00    0.171E+00
RMM:   3    -0.286794888658E+03   -0.13919E-01   -0.83852E-01  5222   0.170E+00    0.151E+00
RMM:   4    -0.286789801268E+03    0.50874E-02   -0.35742E-02  4633   0.457E-01    0.126E+00
RMM:   5    -0.286789609205E+03    0.19206E-03   -0.15006E-02  4720   0.211E-01    0.125E+00
RMM:   6    -0.286780910344E+03    0.86989E-02   -0.10832E-02  4542   0.226E-01    0.293E-01
RMM:   7    -0.286780270417E+03    0.63993E-03   -0.51435E-03  4495   0.157E-01    0.131E-01
RMM:   8    -0.286780286661E+03   -0.16244E-04   -0.43306E-04  3492   0.435E-02
   3 F= -.28678029E+03 E0= -.28672525E+03  d E =-.600399E+00
 BRION: g(F)=  0.783E-01 g(S)=  0.000E+00 retain N=  1 mean eig= 0.52
 eig:   0.523
 bond charge predicted
       N       E                     dE             d eps       ncg     rms          rms(c)
RMM:   1    -0.288068599238E+03   -0.12883E+01   -0.32934E+01  3946   0.811E+00    0.818E-01
RMM:   2    -0.286851392331E+03    0.12172E+01   -0.19249E+00  4672   0.391E+00    0.123E+00
RMM:   3    -0.286840984971E+03    0.10407E-01   -0.47621E-02  5005   0.486E-01    0.708E-01
RMM:   4    -0.286837855182E+03    0.31298E-02   -0.36236E-03  4294   0.122E-01    0.415E-01
RMM:   5    -0.286836738612E+03    0.11166E-02   -0.28750E-03  4155   0.103E-01    0.197E-01
RMM:   6    -0.286836469341E+03    0.26927E-03   -0.75234E-04  3802   0.577E-02    0.642E-02
RMM:   7    -0.286836481444E+03   -0.12103E-04   -0.21460E-04  2643   0.307E-02
   4 F= -.28683648E+03 E0= -.28678115E+03  d E =-.561948E-01
 BRION: g(F)=  0.367E-01 g(S)=  0.000E+00 retain N=  2 mean eig= 0.81
 eig:   0.571  1.041
 bond charge predicted
       N       E                     dE             d eps       ncg     rms          rms(c)
RMM:   1    -0.287258017242E+03   -0.42155E+00   -0.13031E+01  3934   0.559E+00    0.751E-01
RMM:   2    -0.286898066017E+03    0.35995E+00   -0.72220E-01  4672   0.249E+00    0.215E+00
RMM:   3    -0.286864148437E+03    0.33918E-01   -0.34460E-02  4946   0.407E-01    0.329E-01
RMM:   4    -0.286864886438E+03   -0.73800E-03   -0.31474E-03  4176   0.124E-01    0.167E-01
RMM:   5    -0.286864723672E+03    0.16277E-03   -0.46852E-04  3534   0.487E-02    0.872E-02
RMM:   6    -0.286864691346E+03    0.32326E-04   -0.15235E-04  2521   0.266E-02
   5 F= -.28686469E+03 E0= -.28681029E+03  d E =-.282099E-01
 BRION: g(F)=  0.215E-01 g(S)=  0.000E+00 retain N=  3 mean eig= 1.21
 eig:   0.549  1.543  1.543
 bond charge predicted
       N       E                     dE             d eps       ncg     rms          rms(c)
RMM:   1    -0.288333651533E+03   -0.14689E+01   -0.49622E+01  3919   0.108E+01    0.913E-01
RMM:   2    -0.286951585839E+03    0.13821E+01   -0.24968E+00  4674   0.450E+00    0.228E+00
RMM:   3    -0.286906831648E+03    0.44754E-01   -0.70827E-02  5053   0.627E-01    0.808E-01
RMM:   4    -0.286904081724E+03    0.27499E-02   -0.49588E-03  4401   0.158E-01    0.520E-01
RMM:   5    -0.286901812828E+03    0.22689E-02   -0.85543E-03  4275   0.163E-01    0.204E-01
RMM:   6    -0.286901585559E+03    0.22727E-03   -0.11585E-03  3889   0.650E-02    0.772E-02
RMM:   7    -0.286901629212E+03   -0.43653E-04   -0.23065E-04  2739   0.323E-02
   6 F= -.28690163E+03 E0= -.28684847E+03  d E =-.369379E-01
 BRION: g(F)=  0.764E-02 g(S)=  0.000E+00 retain N=  4 mean eig= 2.82
 eig:   4.739  4.739  0.557  1.246
 bond charge predicted
       N       E                     dE             d eps       ncg     rms          rms(c)
RMM:   1    -0.287095014127E+03   -0.19343E+00   -0.76103E+00  3905   0.459E+00    0.448E-01
RMM:   2    -0.286919238131E+03    0.17578E+00   -0.33707E-01  4669   0.177E+00    0.104E+00
RMM:   3    -0.286911049315E+03    0.81888E-02   -0.13835E-02  4827   0.257E-01    0.204E-01
RMM:   4    -0.286911078595E+03   -0.29280E-04   -0.11321E-03  3985   0.766E-02    0.107E-01
RMM:   5    -0.286911020381E+03    0.58214E-04   -0.27385E-04  3042   0.361E-02
   7 F= -.28691102E+03 E0= -.28685832E+03  d E =-.939117E-02
 BRION: g(F)=  0.488E-02 g(S)=  0.000E+00 retain N=  3 mean eig= 2.23
 eig:   2.878  2.878  0.928
 bond charge predicted
       N       E                     dE             d eps       ncg     rms          rms(c)
RMM:   1    -0.287035320106E+03   -0.12424E+00   -0.48469E+00  3906   0.365E+00    0.292E-01
RMM:   2    -0.286917606796E+03    0.11771E+00   -0.20719E-01  4657   0.140E+00    0.270E-01
RMM:   3    -0.286917241254E+03    0.36554E-03   -0.67929E-03  4575   0.180E-01    0.273E-01
RMM:   4    -0.286916624155E+03    0.61710E-03   -0.68526E-04  3679   0.572E-02    0.891E-02
RMM:   5    -0.286916628242E+03   -0.40867E-05   -0.13753E-04  2528   0.270E-02
   8 F= -.28691663E+03 E0= -.28686430E+03  d E =-.560786E-02
 BRION: g(F)=  0.263E-02 g(S)=  0.000E+00 retain N=  4 mean eig= 4.18
 eig:   7.026  7.026  1.326  1.326
 bond charge predicted
       N       E                     dE             d eps       ncg     rms          rms(c)
RMM:   1    -0.287140202265E+03   -0.22358E+00   -0.10022E+01  3904   0.538E+00    0.383E-01
RMM:   2    -0.286924160799E+03    0.21604E+00   -0.37976E-01  4675   0.190E+00    0.432E-01
RMM:   3    -0.286923139813E+03    0.10210E-02   -0.12394E-02  4803   0.240E-01    0.314E-01
RMM:   4    -0.286922325817E+03    0.81400E-03   -0.11187E-03  4024   0.730E-02    0.123E-01
RMM:   5    -0.286922295204E+03    0.30613E-04   -0.22181E-04  2843   0.321E-02
   9 F= -.28692230E+03 E0= -.28687030E+03  d E =-.566696E-02
 BRION: g(F)=  0.148E-02 g(S)=  0.000E+00 retain N=  4 mean eig= 4.39
 eig:   6.933  6.933  1.844  1.844
 bond charge predicted
       N       E                     dE             d eps       ncg     rms          rms(c)
RMM:   1    -0.286969214857E+03   -0.46889E-01   -0.14910E+00  3905   0.189E+00    0.139E-01
RMM:   2    -0.286924288499E+03    0.44926E-01   -0.69279E-02  4553   0.786E-01    0.245E-01
RMM:   3    -0.286923678384E+03    0.61012E-03   -0.14101E-03  3931   0.861E-02    0.846E-02
RMM:   4    -0.286923640998E+03    0.37386E-04   -0.22871E-04  2661   0.346E-02
  10 F= -.28692364E+03 E0= -.28687164E+03  d E =-.134579E-02
 BRION: g(F)=  0.749E-03 g(S)=  0.000E+00 retain N=  4 mean eig= 4.37
 eig:   7.762  7.762  0.974  0.974
 reached required accuracy - stopping structural energy minimisation
 writing wavefunctions
