 vasp.5.4.1 05Feb16 (build Dec 31 2016 05:41:53) complex                        
  
 executed on           IFC91_ompi date 2017.08.16  09:50:57
 running on   32 total cores
 distrk:  each k-point on   32 cores,    1 groups
 distr:  one band on NCORES_PER_BAND=   8 cores,    4 groups


--------------------------------------------------------------------------------------------------------


 INCAR:
 POTCAR:    PAW_PBE O 08Apr2002                   
 POTCAR:    PAW_PBE Sn_d 06Sep2000                
 POTCAR:    PAW_PBE O 08Apr2002                   
   VRHFIN =O: s2p4                                                              
   LEXCH  = PE                                                                  
   EATOM  =   432.3788 eV,   31.7789 Ry                                         
                                                                                
   TITEL  = PAW_PBE O 08Apr2002                                                 
   LULTRA =        F    use ultrasoft PP ?                                      
   IUNSCR =        1    unscreen: 0-lin 1-nonlin 2-no                           
   RPACOR =    1.200    partial core radius                                     
   POMASS =   16.000; ZVAL   =    6.000    mass and valenz                      
   RCORE  =    1.520    outmost cutoff radius                                   
   RWIGS  =    1.550; RWIGS  =    0.820    wigner-seitz radius (au A)           
   ENMAX  =  400.000; ENMIN  =  300.000 eV                                      
   ICORE  =        2    local potential                                         
   LCOR   =        T    correct aug charges                                     
   LPAW   =        T    paw PP                                                  
   EAUG   =  605.392                                                            
   DEXC   =    0.000                                                            
   RMAX   =    1.553    core radius for proj-oper                               
   RAUG   =    1.300    factor for augmentation sphere                          
   RDEP   =    1.550    radius for radial grids                                 
   RDEPT  =    1.329    core radius for aug-charge                              
                                                                                
   Atomic configuration                                                         
    4 entries                                                                   
     n  l   j            E        occ.                                          
     1  0  0.50      -514.6923   2.0000                                         
     2  0  0.50       -23.9615   2.0000                                         
     2  1  0.50        -9.0305   4.0000                                         
     3  2  1.50        -9.5241   0.0000                                         
   Description                                                                  
     l       E           TYP  RCUT    TYP  RCUT                                 
     0    -23.9615318     23  1.200                                             
     0     -9.5240782     23  1.200                                             
     1     -9.0304911     23  1.520                                             
     1      8.1634956     23  1.520                                             
     2     -9.5240782      7  1.500                                             
  local pseudopotential read in
  partial core-charges read in
  partial kinetic energy density read in
  kinetic energy density of atom read in
  atomic valenz-charges read in
  non local Contribution for L=           0  read in
    real space projection operators read in
  non local Contribution for L=           0  read in
    real space projection operators read in
  non local Contribution for L=           1  read in
    real space projection operators read in
  non local Contribution for L=           1  read in
    real space projection operators read in
    PAW grid and wavefunctions read in
 
   number of l-projection  operators is LMAX  =           4
   number of lm-projection operators is LMMAX =           8
 
 POTCAR:    PAW_PBE Sn_d 06Sep2000                
   VRHFIN =Sn: s2p2                                                             
   LEXCH  = PE                                                                  
   EATOM  =  1893.1092 eV,  139.1396 Ry                                         
                                                                                
   TITEL  = PAW_PBE Sn_d 06Sep2000                                              
   LULTRA =        F    use ultrasoft PP ?                                      
   IUNSCR =        1    unscreen: 0-lin 1-nonlin 2-no                           
   RPACOR =    2.300    partial core radius                                     
   POMASS =  118.710; ZVAL   =   14.000    mass and valenz                      
   RCORE  =    2.500    outmost cutoff radius                                   
   RWIGS  =    2.960; RWIGS  =    1.566    wigner-seitz radius (au A)           
   ENMAX  =  241.083; ENMIN  =  180.812 eV                                      
   ICORE  =        3    local potential                                         
   LCOR   =        T    correct aug charges                                     
   LPAW   =        T    paw PP                                                  
   EAUG   =  439.825                                                            
   DEXC   =    0.000                                                            
   RMAX   =    2.560    core radius for proj-oper                               
   RAUG   =    1.300    factor for augmentation sphere                          
   RDEP   =    2.659    radius for radial grids                                 
   RDEPT  =    2.046    core radius for aug-charge                              
                                                                                
   Atomic configuration                                                         
   12 entries                                                                   
     n  l   j            E        occ.                                          
     1  0  0.50    -29007.2859   2.0000                                         
     2  0  0.50     -4378.8056   2.0000                                         
     2  1  1.50     -3930.4293   6.0000                                         
     3  0  0.50      -845.0264   2.0000                                         
     3  1  1.50      -698.5725   6.0000                                         
     3  2  2.50      -473.2839  10.0000                                         
     4  0  0.50      -133.9036   2.0000                                         
     4  1  1.50       -89.6752   6.0000                                         
     4  2  2.50       -25.8375  10.0000                                         
     5  0  0.50       -10.5484   2.0000                                         
     5  1  0.50        -3.6940   2.0000                                         
     4  3  2.50        -2.7416   0.0000                                         
   Description                                                                  
     l       E           TYP  RCUT    TYP  RCUT                                 
     2    -25.8374624     23  2.500                                             
     2     -5.4423304     23  2.500                                             
     0    -10.5483727     23  2.500                                             
     0     13.6058260     23  2.500                                             
     1     -3.6939829     23  2.500                                             
     1      1.9821976     23  2.500                                             
     3     -1.3605826      7  2.500                                             
  local pseudopotential read in
  partial core-charges read in
  partial kinetic energy density read in
  atomic valenz-charges read in
  non local Contribution for L=           2  read in
    real space projection operators read in
  non local Contribution for L=           2  read in
    real space projection operators read in
  non local Contribution for L=           0  read in
    real space projection operators read in
  non local Contribution for L=           0  read in
    real space projection operators read in
  non local Contribution for L=           1  read in
    real space projection operators read in
  non local Contribution for L=           1  read in
    real space projection operators read in
    PAW grid and wavefunctions read in
 
   number of l-projection  operators is LMAX  =           6
   number of lm-projection operators is LMMAX =          18
 

 ----------------------------------------------------------------------------- 
|                                                                             |
|  ADVICE TO THIS USER RUNNING 'VASP/VAMP'   (HEAR YOUR MASTER'S VOICE ...):  |
|                                                                             |
|      You have a (more or less) 'large supercell' and for larger cells       |
|      it might be more efficient to use real space projection opertators     |
|      So try LREAL= Auto  in the INCAR   file.                               |
|      Mind: At the moment your POTCAR file does not contain real space       |
|       projectors, and has to be modified,  BUT if you                       |
|      want to do an extremely  accurate calculation you might also keep the  |
|      reciprocal projection scheme          (i.e. LREAL=.FALSE.)             |
|                                                                             |
 ----------------------------------------------------------------------------- 

  PAW_PBE O 08Apr2002                   :
 energy of atom  1       EATOM= -432.3788
 kinetic energy error for atom=    0.0258 (will be added to EATOM!!)
  PAW_PBE Sn_d 06Sep2000                :
 energy of atom  2       EATOM=-1893.1092
 kinetic energy error for atom=    0.0038 (will be added to EATOM!!)
 
 
 POSCAR: SnO2                                    
  positions in direct lattice
  velocities in cartesian coordinates
 exchange correlation table for  LEXCH =        8
   RHO(1)=    0.500       N(1)  =     2000
   RHO(2)=  100.500       N(2)  =     4000
 


--------------------------------------------------------------------------------------------------------


 ion  position               nearest neighbor table
   1  0.097  0.903  0.750-  40 2.04  36 2.04
   2  0.403  0.597  0.750-  40 2.04  33 2.04  47 2.04
   3  0.903  0.597  0.750-  34 2.04  38 2.04  43 2.04
   4  0.653  0.153  0.000-  46 2.04  45 2.04  41 2.04
   5  0.847  0.347  0.000-  43 2.04  41 2.04  45 2.04
   6  0.903  0.097  0.250-  45 2.04  36 2.04
   7  0.597  0.403  0.250-  45 2.04  33 2.04  47 2.04
   8  0.653  0.153  0.500-  42 2.04  41 2.04  45 2.04
   9  0.347  0.847  0.500-  42 2.04  40 2.04  44 2.04
  10  0.847  0.347  0.500-  38 2.04  41 2.04  45 2.04
  11  0.597  0.403  0.750-  41 2.04  33 2.04  47 2.04
  12  0.653  0.653  0.000-  47 2.04  37 2.04  34 2.04
  13  0.847  0.847  0.000-  34 2.04  37 2.04
  14  0.903  0.597  0.250-  37 2.04  38 2.04  43 2.04
  15  0.597  0.903  0.250-  37 2.04  42 2.04  46 2.04
  16  0.653  0.653  0.500-  33 2.04  34 2.04  37 2.04
  17  0.847  0.847  0.500-  36 2.04  34 2.04  37 2.04
  18  0.903  0.097  0.750-  41 2.04  36 2.04
  19  0.153  0.653  0.500-  38 2.04  40 2.04  44 2.04
  20  0.597  0.903  0.750-  34 2.04  42 2.04  46 2.04
  21  0.347  0.347  0.500-  33 2.04  35 2.04  39 2.04
  22  0.097  0.903  0.250-  44 2.04  36 2.04
  23  0.403  0.597  0.250-  44 2.04  33 2.04  47 2.04
  24  0.347  0.847  0.000-  46 2.04  44 2.04  40 2.04
  25  0.153  0.153  0.500-  36 2.04  35 2.04  39 2.04
  26  0.153  0.153  0.000-  35 2.04  39 2.04
  27  0.153  0.653  0.000-  43 2.04  40 2.04  44 2.04
  28  0.097  0.403  0.250-  35 2.04  38 2.04  43 2.04
  29  0.403  0.097  0.750-  39 2.04  42 2.04  46 2.04
  30  0.097  0.403  0.750-  39 2.04  38 2.04  43 2.04
  31  0.347  0.347  0.000-  47 2.04  39 2.04  35 2.04
  32  0.403  0.097  0.250-  35 2.04  42 2.04  46 2.04
  33  0.500  0.500  0.500-  16 2.04  21 2.04  11 2.04   2 2.04   7 2.04  23 2.04  47 3.15  47 3.15
                            37 3.69  39 3.69  40 3.69  41 3.69  44 3.69  45 3.69  34 3.69  35 3.69
  34  0.750  0.750  0.750-   3 2.04  20 2.04  13 2.04  16 2.04  17 2.04  12 2.04  37 3.15  37 3.15
                            33 3.69  38 3.69  42 3.69  43 3.69  46 3.69  47 3.69  36 3.69
  35  0.250  0.250  0.250-  28 2.04  32 2.04  26 2.04  21 2.04  31 2.04  25 2.04  39 3.15  39 3.15
                            38 3.69  33 3.69  42 3.69  43 3.69  46 3.69  47 3.69  36 3.69
  36  0.000  0.000  0.500-  17 2.04  25 2.04   1 2.04  18 2.04  22 2.04   6 2.04  34 3.69  35 3.69
                            37 3.69  39 3.69  40 3.69  41 3.69  44 3.69  45 3.69
  37  0.750  0.750  0.250-  14 2.04  15 2.04  12 2.04  13 2.04  16 2.04  17 2.04  34 3.15  34 3.15
                            36 3.69  38 3.69  42 3.69  43 3.69  46 3.69  47 3.69  33 3.69
  38  0.000  0.500  0.500-  10 2.04  19 2.04  14 2.04   3 2.04  28 2.04  30 2.04  43 3.15  43 3.15
                            37 3.69  39 3.69  40 3.69  41 3.69  34 3.69  44 3.69  45 3.69  35 3.69
  39  0.250  0.250  0.750-  29 2.04  30 2.04  26 2.04  21 2.04  25 2.04  31 2.04  35 3.15  35 3.15
                            36 3.69  38 3.69  42 3.69  43 3.69  46 3.69  47 3.69  33 3.69
  40  0.250  0.750  0.750-   1 2.04   2 2.04   9 2.04  19 2.04  24 2.04  27 2.04  44 3.15  44 3.15
                            38 3.69  42 3.69  43 3.69  33 3.69  46 3.69  47 3.69  36 3.69
  41  0.750  0.250  0.750-  11 2.04  18 2.04   8 2.04  10 2.04   4 2.04   5 2.04  45 3.15  45 3.15
                            38 3.69  42 3.69  43 3.69  33 3.69  46 3.69  47 3.69  36 3.69
  42  0.500  0.000  0.500-   8 2.04   9 2.04  15 2.04  20 2.04  29 2.04  32 2.04  46 3.15  46 3.15
                            37 3.69  39 3.69  40 3.69  41 3.69  44 3.69  45 3.69  34 3.69  35 3.69
  43  0.000  0.500  0.000-   5 2.04  27 2.04  14 2.04   3 2.04  28 2.04  30 2.04  38 3.15  38 3.15
                            37 3.69  34 3.69  39 3.69  40 3.69  41 3.69  44 3.69  45 3.69  35 3.69
  44  0.250  0.750  0.250-  22 2.04  23 2.04   9 2.04  19 2.04  24 2.04  27 2.04  40 3.15  40 3.15
                            38 3.69  33 3.69  42 3.69  43 3.69  46 3.69  47 3.69  36 3.69
  45  0.750  0.250  0.250-   6 2.04   7 2.04   4 2.04   5 2.04   8 2.04  10 2.04  41 3.15  41 3.15
                            38 3.69  33 3.69  42 3.69  43 3.69  46 3.69  47 3.69  36 3.69
  46  0.500  0.000  0.000-   4 2.04  24 2.04  20 2.04  15 2.04  29 2.04  32 2.04  42 3.15  42 3.15
                            37 3.69  39 3.69  40 3.69  41 3.69  34 3.69  44 3.69  45 3.69  35 3.69
  47  0.500  0.500  0.000-  12 2.04  31 2.04  11 2.04   2 2.04  23 2.04   7 2.04  33 3.15  33 3.15
                            35 3.69  37 3.69  39 3.69  40 3.69  41 3.69  44 3.69  45 3.69  34 3.69
 
  LATTYP: Found a simple tetragonal cell.
 ALAT       =     9.4320271667
 C/A-ratio  =     0.6685526591
  
  Lattice vectors:
  
 A1 = (   9.4320271667,   0.0000000000,   0.0000000000)
 A2 = (   0.0000000000,   9.4320271667,   0.0000000000)
 A3 = (   0.0000000000,   0.0000000000,   6.3058068432)


Analysis of symmetry for initial positions (statically):
=====================================================================
 Subroutine PRICEL returns:
 Original cell was already a primitive cell.
 

 Routine SETGRP: Setting up the symmetry group for a 
 simple tetragonal supercell.


 Subroutine GETGRP returns: Found  8 space group operations
 (whereof  8 operations were pure point group operations)
 out of a pool of 16 trial point group operations.


The static configuration has the point symmetry D_2h.


Analysis of symmetry for dynamics (positions and initial velocities):
=====================================================================
 Subroutine PRICEL returns:
 Original cell was already a primitive cell.
 

 Routine SETGRP: Setting up the symmetry group for a 
 simple tetragonal supercell.


 Subroutine GETGRP returns: Found  8 space group operations
 (whereof  8 operations were pure point group operations)
 out of a pool of 16 trial point group operations.


The dynamic configuration has the point symmetry D_2h.


Analysis of constrained symmetry for selective dynamics:
=====================================================================
 Subroutine PRICEL returns:
 Original cell was already a primitive cell.
 

 Routine SETGRP: Setting up the symmetry group for a 
 simple tetragonal supercell.


 Subroutine GETGRP returns: Found  8 space group operations
 (whereof  8 operations were pure point group operations)
 out of a pool of 16 trial point group operations.


The constrained configuration has the point symmetry D_2h.


 Subroutine INISYM returns: Found  8 space group operations
 (whereof  8 operations are pure point group operations),
 and found     1 'primitive' translations

 
 
 KPOINTS: Automatic mesh                          

Automatic generation of k-mesh.
Space group operators:
 irot       det(A)        alpha          n_x          n_y          n_z        tau_x        tau_y        tau_z
    1     1.000000     0.000000     1.000000     0.000000     0.000000     0.000000     0.000000     0.000000
    2    -1.000000     0.000000     1.000000     0.000000     0.000000     0.000000     0.000000     0.000000
    3     1.000000   180.000000     0.000000     0.000000     1.000000     0.000000     0.000000     0.000000
    4    -1.000000   180.000000     0.000000     0.000000     1.000000     0.000000     0.000000     0.000000
    5     1.000000   180.000000     0.707107     0.707107     0.000000     0.000000     0.000000     0.000000
    6    -1.000000   180.000000     0.707107     0.707107     0.000000     0.000000     0.000000     0.000000
    7     1.000000   180.000000     0.707107    -0.707107     0.000000     0.000000     0.000000     0.000000
    8    -1.000000   180.000000     0.707107    -0.707107     0.000000     0.000000     0.000000     0.000000
 
 Subroutine IBZKPT returns following result:
 ===========================================
 
 Found      8 irreducible k-points:
 
 Following reciprocal coordinates:
            Coordinates               Weight
  0.000000  0.000000  0.125000      2.000000
  0.333333  0.000000  0.125000      8.000000
  0.333333  0.333333  0.125000      4.000000
 -0.333333  0.333333  0.125000      4.000000
  0.000000  0.000000  0.375000      2.000000
  0.333333  0.000000  0.375000      8.000000
  0.333333  0.333333  0.375000      4.000000
 -0.333333  0.333333  0.375000      4.000000
 
 Following cartesian coordinates:
            Coordinates               Weight
  0.000000  0.000000  0.019823      2.000000
  0.035341  0.000000  0.019823      8.000000
  0.035341  0.035341  0.019823      4.000000
 -0.035341  0.035341  0.019823      4.000000
  0.000000  0.000000  0.059469      2.000000
  0.035341  0.000000  0.059469      8.000000
  0.035341  0.035341  0.059469      4.000000
 -0.035341  0.035341  0.059469      4.000000
 


--------------------------------------------------------------------------------------------------------




 Dimension of arrays:
   k-points           NKPTS =      8   k-points in BZ     NKDIM =      8   number of bands    NBANDS=    244
   number of dos      NEDOS =    301   number of ions     NIONS =     47
   non local maximal  LDIM  =      6   non local SUM 2l+1 LMDIM =     18
   total plane-waves  NPLWV = 104976
   max r-space proj   IRMAX =      1   max aug-charges    IRDMAX=   8555
   dimension x,y,z NGX =    54 NGY =   54 NGZ =   36
   dimension x,y,z NGXF=   108 NGYF=  108 NGZF=   72
   support grid    NGXF=   108 NGYF=  108 NGZF=   72
   ions per type =              32  15
 NGX,Y,Z   is equivalent  to a cutoff of   9.52,  9.52,  9.49 a.u.
 NGXF,Y,Z  is equivalent  to a cutoff of  19.04, 19.04, 18.98 a.u.


 I would recommend the setting:
   dimension x,y,z NGX =    51 NGY =   51 NGZ =   34
 SYSTEM =  SnO2                                    
 POSCAR =  SnO2                                    

 Startparameter for this run:
   NWRITE =      2    write-flag & timer
   PREC   = normal    normal or accurate (medium, high low for compatibility)
   ISTART =      0    job   : 0-new  1-cont  2-samecut
   ICHARG =      2    charge: 1-file 2-atom 10-const
   ISPIN  =      1    spin polarized calculation?
   LNONCOLLINEAR =      F non collinear calculations
   LSORBIT =      F    spin-orbit coupling
   INIWAV =      1    electr: 0-lowe 1-rand  2-diag
   LASPH  =      F    aspherical Exc in radial PAW
   METAGGA=      F    non-selfconsistent MetaGGA calc.

 Electronic Relaxation 1
   ENCUT  =  480.0 eV  35.28 Ry    5.94 a.u.  16.85 16.85 11.26*2*pi/ulx,y,z
   ENINI  =  480.0     initial cutoff
   ENAUG  =  605.4 eV  augmentation charge cutoff
   NELM   =     60;   NELMIN=  2; NELMDL= -5     # of ELM steps 
   EDIFF  = 0.1E-03   stopping-criterion for ELM
   LREAL  =      F    real-space projection
   NLSPLINE    = F    spline interpolate recip. space projectors
   LCOMPAT=      F    compatible to vasp.4.4
   GGA_COMPAT  = T    GGA compatible to vasp.4.4-vasp.4.6
   LMAXPAW     = -100 max onsite density
   LMAXMIX     =    4 max onsite mixed and CHGCAR
   VOSKOWN=      0    Vosko Wilk Nusair interpolation
   ROPT   =    0.00000   0.00000
 Ionic relaxation
   EDIFFG = -.5E-01   stopping-criterion for IOM
   NSW    =    100    number of steps for IOM
   NBLOCK =      1;   KBLOCK =    100    inner block; outer block 
   IBRION =      1    ionic relax: 0-MD 1-quasi-New 2-CG
   NFREE  =      0    steps in history (QN), initial steepest desc. (CG)
   ISIF   =      2    stress and relaxation
   IWAVPR =     11    prediction:  0-non 1-charg 2-wave 3-comb
   ISYM   =      2    0-nonsym 1-usesym 2-fastsym
   LCORR  =      T    Harris-Foulkes like correction to forces

   POTIM  = 0.5000    time-step for ionic-motion
   TEIN   =    0.0    initial temperature
   TEBEG  =    0.0;   TEEND  =   0.0 temperature during run
   SMASS  =  -3.00    Nose mass-parameter (am)
   estimated Nose-frequenzy (Omega)   =  0.10E-29 period in steps =****** mass=  -0.203E-26a.u.
   SCALEE = 1.0000    scale energy and forces
   NPACO  =    256;   APACO  = 16.0  distance and # of slots for P.C.
   PSTRESS=    0.0 pullay stress

  Mass of Ions in am
   POMASS =  16.00118.71
  Ionic Valenz
   ZVAL   =   6.00 14.00
  Atomic Wigner-Seitz radii
   RWIGS  =  -1.00 -1.00
  virtual crystal weights 
   VCA    =   1.00  1.00
   NELECT =     404.0000    total number of electrons
   NUPDOWN=      -1.0000    fix difference up-down

 DOS related values:
   EMIN   =  10.00;   EMAX   =-10.00  energy-range for DOS
   EFERMI =   0.00
   ISMEAR =     0;   SIGMA  =   0.10  broadening in eV -4-tet -1-fermi 0-gaus

 Electronic relaxation 2 (details)
   IALGO  =     48    algorithm
   LDIAG  =      T    sub-space diagonalisation (order eigenvalues)
   LSUBROT=      F    optimize rotation matrix (better conditioning)
   TURBO    =      0    0=normal 1=particle mesh
   IRESTART =      0    0=no restart 2=restart with 2 vectors
   NREBOOT  =      0    no. of reboots
   NMIN     =      0    reboot dimension
   EREF     =   0.00    reference energy to select bands
   IMIX   =      4    mixing-type and parameters
     AMIX     =   0.40;   BMIX     =  1.00
     AMIX_MAG =   1.60;   BMIX_MAG =  1.00
     AMIN     =   0.10
     WC   =   100.;   INIMIX=   1;  MIXPRE=   1;  MAXMIX= -45

 Intra band minimization:
   WEIMIN = 0.0010     energy-eigenvalue tresh-hold
   EBREAK =  0.10E-06  absolut break condition
   DEPER  =   0.30     relativ break condition  

   TIME   =   0.40     timestep for ELM

  volume/ion in A,a.u.               =      11.94        80.55
  Fermi-wavevector in a.u.,A,eV,Ry     =   1.467411  2.773004 29.297349  2.153294
  Thomas-Fermi vector in A             =   2.583032
 
 Write flags
   LWAVE  =      T    write WAVECAR
   LCHARG =      T    write CHGCAR
   LVTOT  =      F    write LOCPOT, total local potential
   LVHAR  =      F    write LOCPOT, Hartree potential only
   LELF   =      F    write electronic localiz. function (ELF)
   LORBIT =      0    0 simple, 1 ext, 2 COOP (PROOUT)


 Dipole corrections
   LMONO  =      F    monopole corrections only (constant potential shift)
   LDIPOL =      F    correct potential (dipole corrections)
   IDIPOL =      0    1-x, 2-y, 3-z, 4-all directions 
   EPSILON=  1.0000000 bulk dielectric constant

 LDA+U is selected, type is set to LDAUTYPE =  2
   angular momentum for each species LDAUL =    -1    2
   U (eV)           for each species LDAUU =   0.0  4.0
   J (eV)           for each species LDAUJ =   0.0  0.0
 Exchange correlation treatment:
   GGA     =    --    GGA type
   LEXCH   =     8    internal setting for exchange type
   VOSKOWN=      0    Vosko Wilk Nusair interpolation
   LHFCALC =     F    Hartree Fock is set to
   LHFONE  =     F    Hartree Fock one center treatment
   AEXX    =    0.0000 exact exchange contribution

 Linear response parameters
   LEPSILON=     F    determine dielectric tensor
   LRPA    =     F    only Hartree local field effects (RPA)
   LNABLA  =     F    use nabla operator in PAW spheres
   LVEL    =     F    velocity operator in full k-point grid
   LINTERFAST=   F  fast interpolation
   KINTER  =     0    interpolate to denser k-point grid
   CSHIFT  =0.1000    complex shift for real part using Kramers Kronig
   OMEGAMAX=  -1.0    maximum frequency
   DEG_THRESHOLD= 0.2000000E-02 threshold for treating states as degnerate
   RTIME   =    0.100 relaxation time in fs

 Orbital magnetization related:
   ORBITALMAG=     F  switch on orbital magnetization
   LCHIMAG   =     F  perturbation theory with respect to B field
   DQ        =  0.001000  dq finite difference perturbation B field



--------------------------------------------------------------------------------------------------------


 quasi-Newton-method for relaxation of ions
   using selective dynamics as specified on POSCAR
 charge density and potential will be updated during run
 non-spin polarized calculation
 RMM-DIIS sequential band-by-band
 perform sub-space diagonalisation
    before iterative eigenvector-optimisation
 modified Broyden-mixing scheme, WC =      100.0
 initial mixing is a Kerker type mixing with AMIX =  0.4000 and BMIX =      1.0000
 Hartree-type preconditioning will be used
 using additional bands           42
 reciprocal scheme for non local part
 use partial core corrections
 calculate Harris-corrections to forces 
   (improved forces if not selfconsistent)
 use gradient corrections 
 use of overlap-Matrix (Vanderbilt PP)
 Gauss-broadening in eV      SIGMA  =   0.10


--------------------------------------------------------------------------------------------------------


  energy-cutoff  :      480.00
  volume of cell :      560.98
      direct lattice vectors                 reciprocal lattice vectors
     9.432027167  0.000000000  0.000000000     0.106021747  0.000000000  0.000000000
     0.000000000  9.432027167  0.000000000     0.000000000  0.106021747  0.000000000
     0.000000000  0.000000000  6.305806843     0.000000000  0.000000000  0.158583989

  length of vectors
     9.432027167  9.432027167  6.305806843     0.106021747  0.106021747  0.158583989


 
 k-points in units of 2pi/SCALE and weight: Automatic mesh                          
   0.00000000  0.00000000  0.01982300       0.056
   0.03534058  0.00000000  0.01982300       0.222
   0.03534058  0.03534058  0.01982300       0.111
  -0.03534058  0.03534058  0.01982300       0.111
   0.00000000  0.00000000  0.05946900       0.056
   0.03534058  0.00000000  0.05946900       0.222
   0.03534058  0.03534058  0.05946900       0.111
  -0.03534058  0.03534058  0.05946900       0.111
 
 k-points in reciprocal lattice and weights: Automatic mesh                          
   0.00000000  0.00000000  0.12500000       0.056
   0.33333333  0.00000000  0.12500000       0.222
   0.33333333  0.33333333  0.12500000       0.111
  -0.33333333  0.33333333  0.12500000       0.111
   0.00000000  0.00000000  0.37500000       0.056
   0.33333333  0.00000000  0.37500000       0.222
   0.33333333  0.33333333  0.37500000       0.111
  -0.33333333  0.33333333  0.37500000       0.111
 
 position of ions in fractional coordinates (direct lattice) 
   0.09707491  0.90292509  0.75000000
   0.40292509  0.59707491  0.75000000
   0.90292509  0.59707491  0.75000000
   0.65292509  0.15292509  0.00000000
   0.84707491  0.34707491  0.00000000
   0.90292509  0.09707491  0.25000000
   0.59707491  0.40292509  0.25000000
   0.65292509  0.15292509  0.50000000
   0.34707491  0.84707491  0.50000000
   0.84707491  0.34707491  0.50000000
   0.59707491  0.40292509  0.75000000
   0.65292509  0.65292509  0.00000000
   0.84707491  0.84707491  0.00000000
   0.90292509  0.59707491  0.25000000
   0.59707491  0.90292509  0.25000000
   0.65292509  0.65292509  0.50000000
   0.84707491  0.84707491  0.50000000
   0.90292509  0.09707491  0.75000000
   0.15292509  0.65292509  0.50000000
   0.59707491  0.90292509  0.75000000
   0.34707491  0.34707491  0.50000000
   0.09707491  0.90292509  0.25000000
   0.40292509  0.59707491  0.25000000
   0.34707491  0.84707491  0.00000000
   0.15292509  0.15292509  0.50000000
   0.15292509  0.15292509  0.00000000
   0.15292509  0.65292509  0.00000000
   0.09707491  0.40292509  0.25000000
   0.40292509  0.09707491  0.75000000
   0.09707491  0.40292509  0.75000000
   0.34707491  0.34707491  0.00000000
   0.40292509  0.09707491  0.25000000
   0.50000000  0.50000000  0.50000000
   0.75000000  0.75000000  0.75000000
   0.25000000  0.25000000  0.25000000
   0.00000000  0.00000000  0.50000000
   0.75000000  0.75000000  0.25000000
   0.00000000  0.50000000  0.50000000
   0.25000000  0.25000000  0.75000000
   0.25000000  0.75000000  0.75000000
   0.75000000  0.25000000  0.75000000
   0.50000000  0.00000000  0.50000000
   0.00000000  0.50000000  0.00000000
   0.25000000  0.75000000  0.25000000
   0.75000000  0.25000000  0.25000000
   0.50000000  0.00000000  0.00000000
   0.50000000  0.50000000  0.00000000
 
 position of ions in cartesian coordinates  (Angst):
   0.91561321  8.51641396  4.72935513
   3.80040037  5.63162680  4.72935513
   8.51641396  5.63162680  4.72935513
   6.15840716  1.44239358  0.00000000
   7.98963359  3.27362000  0.00000000
   8.51641396  0.91561321  1.57645171
   5.63162680  3.80040037  1.57645171
   6.15840716  1.44239358  3.15290342
   3.27362000  7.98963359  3.15290342
   7.98963359  3.27362000  3.15290342
   5.63162680  3.80040037  4.72935513
   6.15840716  6.15840716  0.00000000
   7.98963359  7.98963359  0.00000000
   8.51641396  5.63162680  1.57645171
   5.63162680  8.51641396  1.57645171
   6.15840716  6.15840716  3.15290342
   7.98963359  7.98963359  3.15290342
   8.51641396  0.91561321  4.72935513
   1.44239358  6.15840716  3.15290342
   5.63162680  8.51641396  4.72935513
   3.27362000  3.27362000  3.15290342
   0.91561321  8.51641396  1.57645171
   3.80040037  5.63162680  1.57645171
   3.27362000  7.98963359  0.00000000
   1.44239358  1.44239358  3.15290342
   1.44239358  1.44239358  0.00000000
   1.44239358  6.15840716  0.00000000
   0.91561321  3.80040037  1.57645171
   3.80040037  0.91561321  4.72935513
   0.91561321  3.80040037  4.72935513
   3.27362000  3.27362000  0.00000000
   3.80040037  0.91561321  1.57645171
   4.71601358  4.71601358  3.15290342
   7.07402038  7.07402038  4.72935513
   2.35800679  2.35800679  1.57645171
   0.00000000  0.00000000  3.15290342
   7.07402038  7.07402038  1.57645171
   0.00000000  4.71601358  3.15290342
   2.35800679  2.35800679  4.72935513
   2.35800679  7.07402038  4.72935513
   7.07402038  2.35800679  4.72935513
   4.71601358  0.00000000  3.15290342
   0.00000000  4.71601358  0.00000000
   2.35800679  7.07402038  1.57645171
   7.07402038  2.35800679  1.57645171
   4.71601358  0.00000000  0.00000000
   4.71601358  4.71601358  0.00000000
 


--------------------------------------------------------------------------------------------------------


 k-point  1 :   0.0000 0.0000 0.1250  plane waves:   13447
 k-point  2 :   0.3333 0.0000 0.1250  plane waves:   13402
 k-point  3 :   0.3333 0.3333 0.1250  plane waves:   13398
 k-point  4 :  -0.3333 0.3333 0.1250  plane waves:   13398
 k-point  5 :   0.0000 0.0000 0.3750  plane waves:   13390
 k-point  6 :   0.3333 0.0000 0.3750  plane waves:   13392
 k-point  7 :   0.3333 0.3333 0.3750  plane waves:   13396
 k-point  8 :  -0.3333 0.3333 0.3750  plane waves:   13396

 maximum and minimum number of plane-waves per node :      1695     1657

 maximum number of plane-waves:     13447
 maximum index in each direction: 
   IXMAX=   17   IYMAX=   16   IZMAX=   11
   IXMIN=  -17   IYMIN=  -17   IZMIN=  -11

 WARNING: aliasing errors must be expected set NGX to  70 to avoid them
 WARNING: aliasing errors must be expected set NGY to  68 to avoid them
 WARNING: aliasing errors must be expected set NGZ to  46 to avoid them
 aliasing errors are usually negligible using standard VASP settings
 and one can safely disregard these warnings

 parallel 3D FFT for wavefunctions:
    minimum data exchange during FFTs selected (reduces bandwidth)
 parallel 3D FFT for charge:
    minimum data exchange during FFTs selected (reduces bandwidth)


 total amount of memory used by VASP on root node    52824. kBytes
========================================================================

   base      :      30000. kBytes
   nonl-proj :       5182. kBytes
   fftplans  :       1450. kBytes
   grid      :       2326. kBytes
   one-center:         93. kBytes
   wavefun   :      13773. kBytes
 
     INWAV:  cpu time    0.0000: real time    0.0002
 Broyden mixing: mesh for mixing (old mesh)
   NGX = 33   NGY = 33   NGZ = 23
  (NGX  =108   NGY  =108   NGZ  = 72)
  gives a total of  25047 points

 initial charge density was supplied:
 charge density of overlapping atoms calculated
 number of electron     402.0000000 magnetization 
 keeping initial charge density in first step


--------------------------------------------------------------------------------------------------------


 Maximum index for augmentation-charges          526 (set IRDMAX)


--------------------------------------------------------------------------------------------------------


 First call to EWALD:  gamma=   0.215
 Maximum number of real-space cells 2x 2x 3
 Maximum number of reciprocal cells 3x 3x 2

 FEWALD executed in parallel
    FEWALD:  cpu time    0.1040: real time    0.1038


----------------------------------------- Iteration    1(   1)  ---------------------------------------


    POTLOK:  cpu time    0.3469: real time    0.5519
    SETDIJ:  cpu time    0.1190: real time    0.1191
atom =  33  type =  2  l = 2
 
 onsite density matrix
 
spin component  1
 
  0.9926  0.0000  0.0000  0.0000  0.0000
  0.0000  0.9926  0.0000  0.0000  0.0000
  0.0000  0.0000  0.9926  0.0000  0.0000
  0.0000  0.0000  0.0000  0.9926  0.0000
  0.0000  0.0000  0.0000  0.0000  0.9926
 
spin component  2
 
  0.9926  0.0000  0.0000  0.0000  0.0000
  0.0000  0.9926  0.0000  0.0000  0.0000
  0.0000  0.0000  0.9926  0.0000  0.0000
  0.0000  0.0000  0.0000  0.9926  0.0000
  0.0000  0.0000  0.0000  0.0000  0.9926
 
 occupancies and eigenvectors
 
  o =  0.9926  v =  1.0000  0.0000  0.0000  0.0000  0.0000  0.0000  0.0000  0.0000  0.0000  0.0000      0.0000  0.0000  0.0000  0.0000  0.0000  0.0000  0.0000  0.0000  0.0000  0.0000
  o =  0.9926  v =  0.0000  1.0000  0.0000  0.0000  0.0000  0.0000  0.0000  0.0000  0.0000  0.0000      0.0000  0.0000  0.0000  0.0000  0.0000  0.0000  0.0000  0.0000  0.0000  0.0000
  o =  0.9926  v =  0.0000  0.0000  1.0000  0.0000  0.0000  0.0000  0.0000  0.0000  0.0000  0.0000      0.0000  0.0000  0.0000  0.0000  0.0000  0.0000  0.0000  0.0000  0.0000  0.0000
  o =  0.9926  v =  0.0000  0.0000  0.0000  1.0000  0.0000  0.0000  0.0000  0.0000  0.0000  0.0000      0.0000  0.0000  0.0000  0.0000  0.0000  0.0000  0.0000  0.0000  0.0000  0.0000
  o =  0.9926  v =  0.0000  0.0000  0.0000  0.0000  1.0000  0.0000  0.0000  0.0000  0.0000  0.0000      0.0000  0.0000  0.0000  0.0000  0.0000  0.0000  0.0000  0.0000  0.0000  0.0000
  o =  0.9926  v =  0.0000  0.0000  0.0000  0.0000  0.0000  1.0000  0.0000  0.0000  0.0000  0.0000      0.0000  0.0000  0.0000  0.0000  0.0000  0.0000  0.0000  0.0000  0.0000  0.0000
  o =  0.9926  v =  0.0000  0.0000  0.0000  0.0000  0.0000  0.0000  1.0000  0.0000  0.0000  0.0000      0.0000  0.0000  0.0000  0.0000  0.0000  0.0000  0.0000  0.0000  0.0000  0.0000
  o =  0.9926  v =  0.0000  0.0000  0.0000  0.0000  0.0000  0.0000  0.0000  1.0000  0.0000  0.0000      0.0000  0.0000  0.0000  0.0000  0.0000  0.0000  0.0000  0.0000  0.0000  0.0000
  o =  0.9926  v =  0.0000  0.0000  0.0000  0.0000  0.0000  0.0000  0.0000  0.0000  1.0000  0.0000      0.0000  0.0000  0.0000  0.0000  0.0000  0.0000  0.0000  0.0000  0.0000  0.0000
  o =  0.9926  v =  0.0000  0.0000  0.0000  0.0000  0.0000  0.0000  0.0000  0.0000  0.0000  1.0000      0.0000  0.0000  0.0000  0.0000  0.0000  0.0000  0.0000  0.0000  0.0000  0.0000
atom =  34  type =  2  l = 2
 
 onsite density matrix
 
spin component  1
 
  0.9926  0.0000  0.0000  0.0000  0.0000
  0.0000  0.9926  0.0000  0.0000  0.0000
  0.0000  0.0000  0.9926  0.0000  0.0000
  0.0000  0.0000  0.0000  0.9926  0.0000
  0.0000  0.0000  0.0000  0.0000  0.9926
 
spin component  2
 
  0.9926  0.0000  0.0000  0.0000  0.0000
  0.0000  0.9926  0.0000  0.0000  0.0000
  0.0000  0.0000  0.9926  0.0000  0.0000
  0.0000  0.0000  0.0000  0.9926  0.0000
  0.0000  0.0000  0.0000  0.0000  0.9926
 
 occupancies and eigenvectors
 
  o =  0.9926  v =  1.0000  0.0000  0.0000  0.0000  0.0000  0.0000  0.0000  0.0000  0.0000  0.0000      0.0000  0.0000  0.0000  0.0000  0.0000  0.0000  0.0000  0.0000  0.0000  0.0000
  o =  0.9926  v =  0.0000  1.0000  0.0000  0.0000  0.0000  0.0000  0.0000  0.0000  0.0000  0.0000      0.0000  0.0000  0.0000  0.0000  0.0000  0.0000  0.0000  0.0000  0.0000  0.0000
  o =  0.9926  v =  0.0000  0.0000  1.0000  0.0000  0.0000  0.0000  0.0000  0.0000  0.0000  0.0000      0.0000  0.0000  0.0000  0.0000  0.0000  0.0000  0.0000  0.0000  0.0000  0.0000
  o =  0.9926  v =  0.0000  0.0000  0.0000  1.0000  0.0000  0.0000  0.0000  0.0000  0.0000  0.0000      0.0000  0.0000  0.0000  0.0000  0.0000  0.0000  0.0000  0.0000  0.0000  0.0000
  o =  0.9926  v =  0.0000  0.0000  0.0000  0.0000  1.0000  0.0000  0.0000  0.0000  0.0000  0.0000      0.0000  0.0000  0.0000  0.0000  0.0000  0.0000  0.0000  0.0000  0.0000  0.0000
  o =  0.9926  v =  0.0000  0.0000  0.0000  0.0000  0.0000  1.0000  0.0000  0.0000  0.0000  0.0000      0.0000  0.0000  0.0000  0.0000  0.0000  0.0000  0.0000  0.0000  0.0000  0.0000
  o =  0.9926  v =  0.0000  0.0000  0.0000  0.0000  0.0000  0.0000  1.0000  0.0000  0.0000  0.0000      0.0000  0.0000  0.0000  0.0000  0.0000  0.0000  0.0000  0.0000  0.0000  0.0000
  o =  0.9926  v =  0.0000  0.0000  0.0000  0.0000  0.0000  0.0000  0.0000  1.0000  0.0000  0.0000      0.0000  0.0000  0.0000  0.0000  0.0000  0.0000  0.0000  0.0000  0.0000  0.0000
  o =  0.9926  v =  0.0000  0.0000  0.0000  0.0000  0.0000  0.0000  0.0000  0.0000  1.0000  0.0000      0.0000  0.0000  0.0000  0.0000  0.0000  0.0000  0.0000  0.0000  0.0000  0.0000
  o =  0.9926  v =  0.0000  0.0000  0.0000  0.0000  0.0000  0.0000  0.0000  0.0000  0.0000  1.0000      0.0000  0.0000  0.0000  0.0000  0.0000  0.0000  0.0000  0.0000  0.0000  0.0000
atom =  35  type =  2  l = 2
 
 onsite density matrix
 
spin component  1
 
  0.9926  0.0000  0.0000  0.0000  0.0000
  0.0000  0.9926  0.0000  0.0000  0.0000
  0.0000  0.0000  0.9926  0.0000  0.0000
  0.0000  0.0000  0.0000  0.9926  0.0000
  0.0000  0.0000  0.0000  0.0000  0.9926
 
spin component  2
 
  0.9926  0.0000  0.0000  0.0000  0.0000
  0.0000  0.9926  0.0000  0.0000  0.0000
  0.0000  0.0000  0.9926  0.0000  0.0000
  0.0000  0.0000  0.0000  0.9926  0.0000
  0.0000  0.0000  0.0000  0.0000  0.9926
 
 occupancies and eigenvectors
 
  o =  0.9926  v =  1.0000  0.0000  0.0000  0.0000  0.0000  0.0000  0.0000  0.0000  0.0000  0.0000      0.0000  0.0000  0.0000  0.0000  0.0000  0.0000  0.0000  0.0000  0.0000  0.0000
  o =  0.9926  v =  0.0000  1.0000  0.0000  0.0000  0.0000  0.0000  0.0000  0.0000  0.0000  0.0000      0.0000  0.0000  0.0000  0.0000  0.0000  0.0000  0.0000  0.0000  0.0000  0.0000
  o =  0.9926  v =  0.0000  0.0000  1.0000  0.0000  0.0000  0.0000  0.0000  0.0000  0.0000  0.0000      0.0000  0.0000  0.0000  0.0000  0.0000  0.0000  0.0000  0.0000  0.0000  0.0000
  o =  0.9926  v =  0.0000  0.0000  0.0000  1.0000  0.0000  0.0000  0.0000  0.0000  0.0000  0.0000      0.0000  0.0000  0.0000  0.0000  0.0000  0.0000  0.0000  0.0000  0.0000  0.0000
  o =  0.9926  v =  0.0000  0.0000  0.0000  0.0000  1.0000  0.0000  0.0000  0.0000  0.0000  0.0000      0.0000  0.0000  0.0000  0.0000  0.0000  0.0000  0.0000  0.0000  0.0000  0.0000
  o =  0.9926  v =  0.0000  0.0000  0.0000  0.0000  0.0000  1.0000  0.0000  0.0000  0.0000  0.0000      0.0000  0.0000  0.0000  0.0000  0.0000  0.0000  0.0000  0.0000  0.0000  0.0000
  o =  0.9926  v =  0.0000  0.0000  0.0000  0.0000  0.0000  0.0000  1.0000  0.0000  0.0000  0.0000      0.0000  0.0000  0.0000  0.0000  0.0000  0.0000  0.0000  0.0000  0.0000  0.0000
  o =  0.9926  v =  0.0000  0.0000  0.0000  0.0000  0.0000  0.0000  0.0000  1.0000  0.0000  0.0000      0.0000  0.0000  0.0000  0.0000  0.0000  0.0000  0.0000  0.0000  0.0000  0.0000
  o =  0.9926  v =  0.0000  0.0000  0.0000  0.0000  0.0000  0.0000  0.0000  0.0000  1.0000  0.0000      0.0000  0.0000  0.0000  0.0000  0.0000  0.0000  0.0000  0.0000  0.0000  0.0000
  o =  0.9926  v =  0.0000  0.0000  0.0000  0.0000  0.0000  0.0000  0.0000  0.0000  0.0000  1.0000      0.0000  0.0000  0.0000  0.0000  0.0000  0.0000  0.0000  0.0000  0.0000  0.0000
atom =  36  type =  2  l = 2
 
 onsite density matrix
 
spin component  1
 
  0.9926  0.0000  0.0000  0.0000  0.0000
  0.0000  0.9926  0.0000  0.0000  0.0000
  0.0000  0.0000  0.9926  0.0000  0.0000
  0.0000  0.0000  0.0000  0.9926  0.0000
  0.0000  0.0000  0.0000  0.0000  0.9926
 
spin component  2
 
  0.9926  0.0000  0.0000  0.0000  0.0000
  0.0000  0.9926  0.0000  0.0000  0.0000
  0.0000  0.0000  0.9926  0.0000  0.0000
  0.0000  0.0000  0.0000  0.9926  0.0000
  0.0000  0.0000  0.0000  0.0000  0.9926
 
 occupancies and eigenvectors
 
  o =  0.9926  v =  1.0000  0.0000  0.0000  0.0000  0.0000  0.0000  0.0000  0.0000  0.0000  0.0000      0.0000  0.0000  0.0000  0.0000  0.0000  0.0000  0.0000  0.0000  0.0000  0.0000
  o =  0.9926  v =  0.0000  1.0000  0.0000  0.0000  0.0000  0.0000  0.0000  0.0000  0.0000  0.0000      0.0000  0.0000  0.0000  0.0000  0.0000  0.0000  0.0000  0.0000  0.0000  0.0000
  o =  0.9926  v =  0.0000  0.0000  1.0000  0.0000  0.0000  0.0000  0.0000  0.0000  0.0000  0.0000      0.0000  0.0000  0.0000  0.0000  0.0000  0.0000  0.0000  0.0000  0.0000  0.0000
  o =  0.9926  v =  0.0000  0.0000  0.0000  1.0000  0.0000  0.0000  0.0000  0.0000  0.0000  0.0000      0.0000  0.0000  0.0000  0.0000  0.0000  0.0000  0.0000  0.0000  0.0000  0.0000
  o =  0.9926  v =  0.0000  0.0000  0.0000  0.0000  1.0000  0.0000  0.0000  0.0000  0.0000  0.0000      0.0000  0.0000  0.0000  0.0000  0.0000  0.0000  0.0000  0.0000  0.0000  0.0000
  o =  0.9926  v =  0.0000  0.0000  0.0000  0.0000  0.0000  1.0000  0.0000  0.0000  0.0000  0.0000      0.0000  0.0000  0.0000  0.0000  0.0000  0.0000  0.0000  0.0000  0.0000  0.0000
  o =  0.9926  v =  0.0000  0.0000  0.0000  0.0000  0.0000  0.0000  1.0000  0.0000  0.0000  0.0000      0.0000  0.0000  0.0000  0.0000  0.0000  0.0000  0.0000  0.0000  0.0000  0.0000
  o =  0.9926  v =  0.0000  0.0000  0.0000  0.0000  0.0000  0.0000  0.0000  1.0000  0.0000  0.0000      0.0000  0.0000  0.0000  0.0000  0.0000  0.0000  0.0000  0.0000  0.0000  0.0000
  o =  0.9926  v =  0.0000  0.0000  0.0000  0.0000  0.0000  0.0000  0.0000  0.0000  1.0000  0.0000      0.0000  0.0000  0.0000  0.0000  0.0000  0.0000  0.0000  0.0000  0.0000  0.0000
  o =  0.9926  v =  0.0000  0.0000  0.0000  0.0000  0.0000  0.0000  0.0000  0.0000  0.0000  1.0000      0.0000  0.0000  0.0000  0.0000  0.0000  0.0000  0.0000  0.0000  0.0000  0.0000
atom =  37  type =  2  l = 2
 
 onsite density matrix
 
spin component  1
 
  0.9926  0.0000  0.0000  0.0000  0.0000
  0.0000  0.9926  0.0000  0.0000  0.0000
  0.0000  0.0000  0.9926  0.0000  0.0000
  0.0000  0.0000  0.0000  0.9926  0.0000
  0.0000  0.0000  0.0000  0.0000  0.9926
 
spin component  2
 
  0.9926  0.0000  0.0000  0.0000  0.0000
  0.0000  0.9926  0.0000  0.0000  0.0000
  0.0000  0.0000  0.9926  0.0000  0.0000
  0.0000  0.0000  0.0000  0.9926  0.0000
  0.0000  0.0000  0.0000  0.0000  0.9926
 
 occupancies and eigenvectors
 
  o =  0.9926  v =  1.0000  0.0000  0.0000  0.0000  0.0000  0.0000  0.0000  0.0000  0.0000  0.0000      0.0000  0.0000  0.0000  0.0000  0.0000  0.0000  0.0000  0.0000  0.0000  0.0000
  o =  0.9926  v =  0.0000  1.0000  0.0000  0.0000  0.0000  0.0000  0.0000  0.0000  0.0000  0.0000      0.0000  0.0000  0.0000  0.0000  0.0000  0.0000  0.0000  0.0000  0.0000  0.0000
  o =  0.9926  v =  0.0000  0.0000  1.0000  0.0000  0.0000  0.0000  0.0000  0.0000  0.0000  0.0000      0.0000  0.0000  0.0000  0.0000  0.0000  0.0000  0.0000  0.0000  0.0000  0.0000
  o =  0.9926  v =  0.0000  0.0000  0.0000  1.0000  0.0000  0.0000  0.0000  0.0000  0.0000  0.0000      0.0000  0.0000  0.0000  0.0000  0.0000  0.0000  0.0000  0.0000  0.0000  0.0000
  o =  0.9926  v =  0.0000  0.0000  0.0000  0.0000  1.0000  0.0000  0.0000  0.0000  0.0000  0.0000      0.0000  0.0000  0.0000  0.0000  0.0000  0.0000  0.0000  0.0000  0.0000  0.0000
  o =  0.9926  v =  0.0000  0.0000  0.0000  0.0000  0.0000  1.0000  0.0000  0.0000  0.0000  0.0000      0.0000  0.0000  0.0000  0.0000  0.0000  0.0000  0.0000  0.0000  0.0000  0.0000
  o =  0.9926  v =  0.0000  0.0000  0.0000  0.0000  0.0000  0.0000  1.0000  0.0000  0.0000  0.0000      0.0000  0.0000  0.0000  0.0000  0.0000  0.0000  0.0000  0.0000  0.0000  0.0000
  o =  0.9926  v =  0.0000  0.0000  0.0000  0.0000  0.0000  0.0000  0.0000  1.0000  0.0000  0.0000      0.0000  0.0000  0.0000  0.0000  0.0000  0.0000  0.0000  0.0000  0.0000  0.0000
  o =  0.9926  v =  0.0000  0.0000  0.0000  0.0000  0.0000  0.0000  0.0000  0.0000  1.0000  0.0000      0.0000  0.0000  0.0000  0.0000  0.0000  0.0000  0.0000  0.0000  0.0000  0.0000
  o =  0.9926  v =  0.0000  0.0000  0.0000  0.0000  0.0000  0.0000  0.0000  0.0000  0.0000  1.0000      0.0000  0.0000  0.0000  0.0000  0.0000  0.0000  0.0000  0.0000  0.0000  0.0000
atom =  38  type =  2  l = 2
 
 onsite density matrix
 
spin component  1
 
  0.9926  0.0000  0.0000  0.0000  0.0000
  0.0000  0.9926  0.0000  0.0000  0.0000
  0.0000  0.0000  0.9926  0.0000  0.0000
  0.0000  0.0000  0.0000  0.9926  0.0000
  0.0000  0.0000  0.0000  0.0000  0.9926
 
spin component  2
 
  0.9926  0.0000  0.0000  0.0000  0.0000
  0.0000  0.9926  0.0000  0.0000  0.0000
  0.0000  0.0000  0.9926  0.0000  0.0000
  0.0000  0.0000  0.0000  0.9926  0.0000
  0.0000  0.0000  0.0000  0.0000  0.9926
 
 occupancies and eigenvectors
 
  o =  0.9926  v =  1.0000  0.0000  0.0000  0.0000  0.0000  0.0000  0.0000  0.0000  0.0000  0.0000      0.0000  0.0000  0.0000  0.0000  0.0000  0.0000  0.0000  0.0000  0.0000  0.0000
  o =  0.9926  v =  0.0000  1.0000  0.0000  0.0000  0.0000  0.0000  0.0000  0.0000  0.0000  0.0000      0.0000  0.0000  0.0000  0.0000  0.0000  0.0000  0.0000  0.0000  0.0000  0.0000
  o =  0.9926  v =  0.0000  0.0000  1.0000  0.0000  0.0000  0.0000  0.0000  0.0000  0.0000  0.0000      0.0000  0.0000  0.0000  0.0000  0.0000  0.0000  0.0000  0.0000  0.0000  0.0000
  o =  0.9926  v =  0.0000  0.0000  0.0000  1.0000  0.0000  0.0000  0.0000  0.0000  0.0000  0.0000      0.0000  0.0000  0.0000  0.0000  0.0000  0.0000  0.0000  0.0000  0.0000  0.0000
  o =  0.9926  v =  0.0000  0.0000  0.0000  0.0000  1.0000  0.0000  0.0000  0.0000  0.0000  0.0000      0.0000  0.0000  0.0000  0.0000  0.0000  0.0000  0.0000  0.0000  0.0000  0.0000
  o =  0.9926  v =  0.0000  0.0000  0.0000  0.0000  0.0000  1.0000  0.0000  0.0000  0.0000  0.0000      0.0000  0.0000  0.0000  0.0000  0.0000  0.0000  0.0000  0.0000  0.0000  0.0000
  o =  0.9926  v =  0.0000  0.0000  0.0000  0.0000  0.0000  0.0000  1.0000  0.0000  0.0000  0.0000      0.0000  0.0000  0.0000  0.0000  0.0000  0.0000  0.0000  0.0000  0.0000  0.0000
  o =  0.9926  v =  0.0000  0.0000  0.0000  0.0000  0.0000  0.0000  0.0000  1.0000  0.0000  0.0000      0.0000  0.0000  0.0000  0.0000  0.0000  0.0000  0.0000  0.0000  0.0000  0.0000
  o =  0.9926  v =  0.0000  0.0000  0.0000  0.0000  0.0000  0.0000  0.0000  0.0000  1.0000  0.0000      0.0000  0.0000  0.0000  0.0000  0.0000  0.0000  0.0000  0.0000  0.0000  0.0000
  o =  0.9926  v =  0.0000  0.0000  0.0000  0.0000  0.0000  0.0000  0.0000  0.0000  0.0000  1.0000      0.0000  0.0000  0.0000  0.0000  0.0000  0.0000  0.0000  0.0000  0.0000  0.0000
atom =  39  type =  2  l = 2
 
 onsite density matrix
 
spin component  1
 
  0.9926  0.0000  0.0000  0.0000  0.0000
  0.0000  0.9926  0.0000  0.0000  0.0000
  0.0000  0.0000  0.9926  0.0000  0.0000
  0.0000  0.0000  0.0000  0.9926  0.0000
  0.0000  0.0000  0.0000  0.0000  0.9926
 
spin component  2
 
  0.9926  0.0000  0.0000  0.0000  0.0000
  0.0000  0.9926  0.0000  0.0000  0.0000
  0.0000  0.0000  0.9926  0.0000  0.0000
  0.0000  0.0000  0.0000  0.9926  0.0000
  0.0000  0.0000  0.0000  0.0000  0.9926
 
 occupancies and eigenvectors
 
  o =  0.9926  v =  1.0000  0.0000  0.0000  0.0000  0.0000  0.0000  0.0000  0.0000  0.0000  0.0000      0.0000  0.0000  0.0000  0.0000  0.0000  0.0000  0.0000  0.0000  0.0000  0.0000
  o =  0.9926  v =  0.0000  1.0000  0.0000  0.0000  0.0000  0.0000  0.0000  0.0000  0.0000  0.0000      0.0000  0.0000  0.0000  0.0000  0.0000  0.0000  0.0000  0.0000  0.0000  0.0000
  o =  0.9926  v =  0.0000  0.0000  1.0000  0.0000  0.0000  0.0000  0.0000  0.0000  0.0000  0.0000      0.0000  0.0000  0.0000  0.0000  0.0000  0.0000  0.0000  0.0000  0.0000  0.0000
  o =  0.9926  v =  0.0000  0.0000  0.0000  1.0000  0.0000  0.0000  0.0000  0.0000  0.0000  0.0000      0.0000  0.0000  0.0000  0.0000  0.0000  0.0000  0.0000  0.0000  0.0000  0.0000
  o =  0.9926  v =  0.0000  0.0000  0.0000  0.0000  1.0000  0.0000  0.0000  0.0000  0.0000  0.0000      0.0000  0.0000  0.0000  0.0000  0.0000  0.0000  0.0000  0.0000  0.0000  0.0000
  o =  0.9926  v =  0.0000  0.0000  0.0000  0.0000  0.0000  1.0000  0.0000  0.0000  0.0000  0.0000      0.0000  0.0000  0.0000  0.0000  0.0000  0.0000  0.0000  0.0000  0.0000  0.0000
  o =  0.9926  v =  0.0000  0.0000  0.0000  0.0000  0.0000  0.0000  1.0000  0.0000  0.0000  0.0000      0.0000  0.0000  0.0000  0.0000  0.0000  0.0000  0.0000  0.0000  0.0000  0.0000
  o =  0.9926  v =  0.0000  0.0000  0.0000  0.0000  0.0000  0.0000  0.0000  1.0000  0.0000  0.0000      0.0000  0.0000  0.0000  0.0000  0.0000  0.0000  0.0000  0.0000  0.0000  0.0000
  o =  0.9926  v =  0.0000  0.0000  0.0000  0.0000  0.0000  0.0000  0.0000  0.0000  1.0000  0.0000      0.0000  0.0000  0.0000  0.0000  0.0000  0.0000  0.0000  0.0000  0.0000  0.0000
  o =  0.9926  v =  0.0000  0.0000  0.0000  0.0000  0.0000  0.0000  0.0000  0.0000  0.0000  1.0000      0.0000  0.0000  0.0000  0.0000  0.0000  0.0000  0.0000  0.0000  0.0000  0.0000
atom =  40  type =  2  l = 2
 
 onsite density matrix
 
spin component  1
 
  0.9926  0.0000  0.0000  0.0000  0.0000
  0.0000  0.9926  0.0000  0.0000  0.0000
  0.0000  0.0000  0.9926  0.0000  0.0000
  0.0000  0.0000  0.0000  0.9926  0.0000
  0.0000  0.0000  0.0000  0.0000  0.9926
 
spin component  2
 
  0.9926  0.0000  0.0000  0.0000  0.0000
  0.0000  0.9926  0.0000  0.0000  0.0000
  0.0000  0.0000  0.9926  0.0000  0.0000
  0.0000  0.0000  0.0000  0.9926  0.0000
  0.0000  0.0000  0.0000  0.0000  0.9926
 
 occupancies and eigenvectors
 
  o =  0.9926  v =  1.0000  0.0000  0.0000  0.0000  0.0000  0.0000  0.0000  0.0000  0.0000  0.0000      0.0000  0.0000  0.0000  0.0000  0.0000  0.0000  0.0000  0.0000  0.0000  0.0000
  o =  0.9926  v =  0.0000  1.0000  0.0000  0.0000  0.0000  0.0000  0.0000  0.0000  0.0000  0.0000      0.0000  0.0000  0.0000  0.0000  0.0000  0.0000  0.0000  0.0000  0.0000  0.0000
  o =  0.9926  v =  0.0000  0.0000  1.0000  0.0000  0.0000  0.0000  0.0000  0.0000  0.0000  0.0000      0.0000  0.0000  0.0000  0.0000  0.0000  0.0000  0.0000  0.0000  0.0000  0.0000
  o =  0.9926  v =  0.0000  0.0000  0.0000  1.0000  0.0000  0.0000  0.0000  0.0000  0.0000  0.0000      0.0000  0.0000  0.0000  0.0000  0.0000  0.0000  0.0000  0.0000  0.0000  0.0000
  o =  0.9926  v =  0.0000  0.0000  0.0000  0.0000  1.0000  0.0000  0.0000  0.0000  0.0000  0.0000      0.0000  0.0000  0.0000  0.0000  0.0000  0.0000  0.0000  0.0000  0.0000  0.0000
  o =  0.9926  v =  0.0000  0.0000  0.0000  0.0000  0.0000  1.0000  0.0000  0.0000  0.0000  0.0000      0.0000  0.0000  0.0000  0.0000  0.0000  0.0000  0.0000  0.0000  0.0000  0.0000
  o =  0.9926  v =  0.0000  0.0000  0.0000  0.0000  0.0000  0.0000  1.0000  0.0000  0.0000  0.0000      0.0000  0.0000  0.0000  0.0000  0.0000  0.0000  0.0000  0.0000  0.0000  0.0000
  o =  0.9926  v =  0.0000  0.0000  0.0000  0.0000  0.0000  0.0000  0.0000  1.0000  0.0000  0.0000      0.0000  0.0000  0.0000  0.0000  0.0000  0.0000  0.0000  0.0000  0.0000  0.0000
  o =  0.9926  v =  0.0000  0.0000  0.0000  0.0000  0.0000  0.0000  0.0000  0.0000  1.0000  0.0000      0.0000  0.0000  0.0000  0.0000  0.0000  0.0000  0.0000  0.0000  0.0000  0.0000
  o =  0.9926  v =  0.0000  0.0000  0.0000  0.0000  0.0000  0.0000  0.0000  0.0000  0.0000  1.0000      0.0000  0.0000  0.0000  0.0000  0.0000  0.0000  0.0000  0.0000  0.0000  0.0000
atom =  41  type =  2  l = 2
 
 onsite density matrix
 
spin component  1
 
  0.9926  0.0000  0.0000  0.0000  0.0000
  0.0000  0.9926  0.0000  0.0000  0.0000
  0.0000  0.0000  0.9926  0.0000  0.0000
  0.0000  0.0000  0.0000  0.9926  0.0000
  0.0000  0.0000  0.0000  0.0000  0.9926
 
spin component  2
 
  0.9926  0.0000  0.0000  0.0000  0.0000
  0.0000  0.9926  0.0000  0.0000  0.0000
  0.0000  0.0000  0.9926  0.0000  0.0000
  0.0000  0.0000  0.0000  0.9926  0.0000
  0.0000  0.0000  0.0000  0.0000  0.9926
 
 occupancies and eigenvectors
 
  o =  0.9926  v =  1.0000  0.0000  0.0000  0.0000  0.0000  0.0000  0.0000  0.0000  0.0000  0.0000      0.0000  0.0000  0.0000  0.0000  0.0000  0.0000  0.0000  0.0000  0.0000  0.0000
  o =  0.9926  v =  0.0000  1.0000  0.0000  0.0000  0.0000  0.0000  0.0000  0.0000  0.0000  0.0000      0.0000  0.0000  0.0000  0.0000  0.0000  0.0000  0.0000  0.0000  0.0000  0.0000
  o =  0.9926  v =  0.0000  0.0000  1.0000  0.0000  0.0000  0.0000  0.0000  0.0000  0.0000  0.0000      0.0000  0.0000  0.0000  0.0000  0.0000  0.0000  0.0000  0.0000  0.0000  0.0000
  o =  0.9926  v =  0.0000  0.0000  0.0000  1.0000  0.0000  0.0000  0.0000  0.0000  0.0000  0.0000      0.0000  0.0000  0.0000  0.0000  0.0000  0.0000  0.0000  0.0000  0.0000  0.0000
  o =  0.9926  v =  0.0000  0.0000  0.0000  0.0000  1.0000  0.0000  0.0000  0.0000  0.0000  0.0000      0.0000  0.0000  0.0000  0.0000  0.0000  0.0000  0.0000  0.0000  0.0000  0.0000
  o =  0.9926  v =  0.0000  0.0000  0.0000  0.0000  0.0000  1.0000  0.0000  0.0000  0.0000  0.0000      0.0000  0.0000  0.0000  0.0000  0.0000  0.0000  0.0000  0.0000  0.0000  0.0000
  o =  0.9926  v =  0.0000  0.0000  0.0000  0.0000  0.0000  0.0000  1.0000  0.0000  0.0000  0.0000      0.0000  0.0000  0.0000  0.0000  0.0000  0.0000  0.0000  0.0000  0.0000  0.0000
  o =  0.9926  v =  0.0000  0.0000  0.0000  0.0000  0.0000  0.0000  0.0000  1.0000  0.0000  0.0000      0.0000  0.0000  0.0000  0.0000  0.0000  0.0000  0.0000  0.0000  0.0000  0.0000
  o =  0.9926  v =  0.0000  0.0000  0.0000  0.0000  0.0000  0.0000  0.0000  0.0000  1.0000  0.0000      0.0000  0.0000  0.0000  0.0000  0.0000  0.0000  0.0000  0.0000  0.0000  0.0000
  o =  0.9926  v =  0.0000  0.0000  0.0000  0.0000  0.0000  0.0000  0.0000  0.0000  0.0000  1.0000      0.0000  0.0000  0.0000  0.0000  0.0000  0.0000  0.0000  0.0000  0.0000  0.0000
atom =  42  type =  2  l = 2
 
 onsite density matrix
 
spin component  1
 
  0.9926  0.0000  0.0000  0.0000  0.0000
  0.0000  0.9926  0.0000  0.0000  0.0000
  0.0000  0.0000  0.9926  0.0000  0.0000
  0.0000  0.0000  0.0000  0.9926  0.0000
  0.0000  0.0000  0.0000  0.0000  0.9926
 
spin component  2
 
  0.9926  0.0000  0.0000  0.0000  0.0000
  0.0000  0.9926  0.0000  0.0000  0.0000
  0.0000  0.0000  0.9926  0.0000  0.0000
  0.0000  0.0000  0.0000  0.9926  0.0000
  0.0000  0.0000  0.0000  0.0000  0.9926
 
 occupancies and eigenvectors
 
  o =  0.9926  v =  1.0000  0.0000  0.0000  0.0000  0.0000  0.0000  0.0000  0.0000  0.0000  0.0000      0.0000  0.0000  0.0000  0.0000  0.0000  0.0000  0.0000  0.0000  0.0000  0.0000
  o =  0.9926  v =  0.0000  1.0000  0.0000  0.0000  0.0000  0.0000  0.0000  0.0000  0.0000  0.0000      0.0000  0.0000  0.0000  0.0000  0.0000  0.0000  0.0000  0.0000  0.0000  0.0000
  o =  0.9926  v =  0.0000  0.0000  1.0000  0.0000  0.0000  0.0000  0.0000  0.0000  0.0000  0.0000      0.0000  0.0000  0.0000  0.0000  0.0000  0.0000  0.0000  0.0000  0.0000  0.0000
  o =  0.9926  v =  0.0000  0.0000  0.0000  1.0000  0.0000  0.0000  0.0000  0.0000  0.0000  0.0000      0.0000  0.0000  0.0000  0.0000  0.0000  0.0000  0.0000  0.0000  0.0000  0.0000
  o =  0.9926  v =  0.0000  0.0000  0.0000  0.0000  1.0000  0.0000  0.0000  0.0000  0.0000  0.0000      0.0000  0.0000  0.0000  0.0000  0.0000  0.0000  0.0000  0.0000  0.0000  0.0000
  o =  0.9926  v =  0.0000  0.0000  0.0000  0.0000  0.0000  1.0000  0.0000  0.0000  0.0000  0.0000      0.0000  0.0000  0.0000  0.0000  0.0000  0.0000  0.0000  0.0000  0.0000  0.0000
  o =  0.9926  v =  0.0000  0.0000  0.0000  0.0000  0.0000  0.0000  1.0000  0.0000  0.0000  0.0000      0.0000  0.0000  0.0000  0.0000  0.0000  0.0000  0.0000  0.0000  0.0000  0.0000
  o =  0.9926  v =  0.0000  0.0000  0.0000  0.0000  0.0000  0.0000  0.0000  1.0000  0.0000  0.0000      0.0000  0.0000  0.0000  0.0000  0.0000  0.0000  0.0000  0.0000  0.0000  0.0000
  o =  0.9926  v =  0.0000  0.0000  0.0000  0.0000  0.0000  0.0000  0.0000  0.0000  1.0000  0.0000      0.0000  0.0000  0.0000  0.0000  0.0000  0.0000  0.0000  0.0000  0.0000  0.0000
  o =  0.9926  v =  0.0000  0.0000  0.0000  0.0000  0.0000  0.0000  0.0000  0.0000  0.0000  1.0000      0.0000  0.0000  0.0000  0.0000  0.0000  0.0000  0.0000  0.0000  0.0000  0.0000
atom =  43  type =  2  l = 2
 
 onsite density matrix
 
spin component  1
 
  0.9926  0.0000  0.0000  0.0000  0.0000
  0.0000  0.9926  0.0000  0.0000  0.0000
  0.0000  0.0000  0.9926  0.0000  0.0000
  0.0000  0.0000  0.0000  0.9926  0.0000
  0.0000  0.0000  0.0000  0.0000  0.9926
 
spin component  2
 
  0.9926  0.0000  0.0000  0.0000  0.0000
  0.0000  0.9926  0.0000  0.0000  0.0000
  0.0000  0.0000  0.9926  0.0000  0.0000
  0.0000  0.0000  0.0000  0.9926  0.0000
  0.0000  0.0000  0.0000  0.0000  0.9926
 
 occupancies and eigenvectors
 
  o =  0.9926  v =  1.0000  0.0000  0.0000  0.0000  0.0000  0.0000  0.0000  0.0000  0.0000  0.0000      0.0000  0.0000  0.0000  0.0000  0.0000  0.0000  0.0000  0.0000  0.0000  0.0000
  o =  0.9926  v =  0.0000  1.0000  0.0000  0.0000  0.0000  0.0000  0.0000  0.0000  0.0000  0.0000      0.0000  0.0000  0.0000  0.0000  0.0000  0.0000  0.0000  0.0000  0.0000  0.0000
  o =  0.9926  v =  0.0000  0.0000  1.0000  0.0000  0.0000  0.0000  0.0000  0.0000  0.0000  0.0000      0.0000  0.0000  0.0000  0.0000  0.0000  0.0000  0.0000  0.0000  0.0000  0.0000
  o =  0.9926  v =  0.0000  0.0000  0.0000  1.0000  0.0000  0.0000  0.0000  0.0000  0.0000  0.0000      0.0000  0.0000  0.0000  0.0000  0.0000  0.0000  0.0000  0.0000  0.0000  0.0000
  o =  0.9926  v =  0.0000  0.0000  0.0000  0.0000  1.0000  0.0000  0.0000  0.0000  0.0000  0.0000      0.0000  0.0000  0.0000  0.0000  0.0000  0.0000  0.0000  0.0000  0.0000  0.0000
  o =  0.9926  v =  0.0000  0.0000  0.0000  0.0000  0.0000  1.0000  0.0000  0.0000  0.0000  0.0000      0.0000  0.0000  0.0000  0.0000  0.0000  0.0000  0.0000  0.0000  0.0000  0.0000
  o =  0.9926  v =  0.0000  0.0000  0.0000  0.0000  0.0000  0.0000  1.0000  0.0000  0.0000  0.0000      0.0000  0.0000  0.0000  0.0000  0.0000  0.0000  0.0000  0.0000  0.0000  0.0000
  o =  0.9926  v =  0.0000  0.0000  0.0000  0.0000  0.0000  0.0000  0.0000  1.0000  0.0000  0.0000      0.0000  0.0000  0.0000  0.0000  0.0000  0.0000  0.0000  0.0000  0.0000  0.0000
  o =  0.9926  v =  0.0000  0.0000  0.0000  0.0000  0.0000  0.0000  0.0000  0.0000  1.0000  0.0000      0.0000  0.0000  0.0000  0.0000  0.0000  0.0000  0.0000  0.0000  0.0000  0.0000
  o =  0.9926  v =  0.0000  0.0000  0.0000  0.0000  0.0000  0.0000  0.0000  0.0000  0.0000  1.0000      0.0000  0.0000  0.0000  0.0000  0.0000  0.0000  0.0000  0.0000  0.0000  0.0000
atom =  44  type =  2  l = 2
 
 onsite density matrix
 
spin component  1
 
  0.9926  0.0000  0.0000  0.0000  0.0000
  0.0000  0.9926  0.0000  0.0000  0.0000
  0.0000  0.0000  0.9926  0.0000  0.0000
  0.0000  0.0000  0.0000  0.9926  0.0000
  0.0000  0.0000  0.0000  0.0000  0.9926
 
spin component  2
 
  0.9926  0.0000  0.0000  0.0000  0.0000
  0.0000  0.9926  0.0000  0.0000  0.0000
  0.0000  0.0000  0.9926  0.0000  0.0000
  0.0000  0.0000  0.0000  0.9926  0.0000
  0.0000  0.0000  0.0000  0.0000  0.9926
 
 occupancies and eigenvectors
 
  o =  0.9926  v =  1.0000  0.0000  0.0000  0.0000  0.0000  0.0000  0.0000  0.0000  0.0000  0.0000      0.0000  0.0000  0.0000  0.0000  0.0000  0.0000  0.0000  0.0000  0.0000  0.0000
  o =  0.9926  v =  0.0000  1.0000  0.0000  0.0000  0.0000  0.0000  0.0000  0.0000  0.0000  0.0000      0.0000  0.0000  0.0000  0.0000  0.0000  0.0000  0.0000  0.0000  0.0000  0.0000
  o =  0.9926  v =  0.0000  0.0000  1.0000  0.0000  0.0000  0.0000  0.0000  0.0000  0.0000  0.0000      0.0000  0.0000  0.0000  0.0000  0.0000  0.0000  0.0000  0.0000  0.0000  0.0000
  o =  0.9926  v =  0.0000  0.0000  0.0000  1.0000  0.0000  0.0000  0.0000  0.0000  0.0000  0.0000      0.0000  0.0000  0.0000  0.0000  0.0000  0.0000  0.0000  0.0000  0.0000  0.0000
  o =  0.9926  v =  0.0000  0.0000  0.0000  0.0000  1.0000  0.0000  0.0000  0.0000  0.0000  0.0000      0.0000  0.0000  0.0000  0.0000  0.0000  0.0000  0.0000  0.0000  0.0000  0.0000
  o =  0.9926  v =  0.0000  0.0000  0.0000  0.0000  0.0000  1.0000  0.0000  0.0000  0.0000  0.0000      0.0000  0.0000  0.0000  0.0000  0.0000  0.0000  0.0000  0.0000  0.0000  0.0000
  o =  0.9926  v =  0.0000  0.0000  0.0000  0.0000  0.0000  0.0000  1.0000  0.0000  0.0000  0.0000      0.0000  0.0000  0.0000  0.0000  0.0000  0.0000  0.0000  0.0000  0.0000  0.0000
  o =  0.9926  v =  0.0000  0.0000  0.0000  0.0000  0.0000  0.0000  0.0000  1.0000  0.0000  0.0000      0.0000  0.0000  0.0000  0.0000  0.0000  0.0000  0.0000  0.0000  0.0000  0.0000
  o =  0.9926  v =  0.0000  0.0000  0.0000  0.0000  0.0000  0.0000  0.0000  0.0000  1.0000  0.0000      0.0000  0.0000  0.0000  0.0000  0.0000  0.0000  0.0000  0.0000  0.0000  0.0000
  o =  0.9926  v =  0.0000  0.0000  0.0000  0.0000  0.0000  0.0000  0.0000  0.0000  0.0000  1.0000      0.0000  0.0000  0.0000  0.0000  0.0000  0.0000  0.0000  0.0000  0.0000  0.0000
atom =  45  type =  2  l = 2
 
 onsite density matrix
 
spin component  1
 
  0.9926  0.0000  0.0000  0.0000  0.0000
  0.0000  0.9926  0.0000  0.0000  0.0000
  0.0000  0.0000  0.9926  0.0000  0.0000
  0.0000  0.0000  0.0000  0.9926  0.0000
  0.0000  0.0000  0.0000  0.0000  0.9926
 
spin component  2
 
  0.9926  0.0000  0.0000  0.0000  0.0000
  0.0000  0.9926  0.0000  0.0000  0.0000
  0.0000  0.0000  0.9926  0.0000  0.0000
  0.0000  0.0000  0.0000  0.9926  0.0000
  0.0000  0.0000  0.0000  0.0000  0.9926
 
 occupancies and eigenvectors
 
  o =  0.9926  v =  1.0000  0.0000  0.0000  0.0000  0.0000  0.0000  0.0000  0.0000  0.0000  0.0000      0.0000  0.0000  0.0000  0.0000  0.0000  0.0000  0.0000  0.0000  0.0000  0.0000
  o =  0.9926  v =  0.0000  1.0000  0.0000  0.0000  0.0000  0.0000  0.0000  0.0000  0.0000  0.0000      0.0000  0.0000  0.0000  0.0000  0.0000  0.0000  0.0000  0.0000  0.0000  0.0000
  o =  0.9926  v =  0.0000  0.0000  1.0000  0.0000  0.0000  0.0000  0.0000  0.0000  0.0000  0.0000      0.0000  0.0000  0.0000  0.0000  0.0000  0.0000  0.0000  0.0000  0.0000  0.0000
  o =  0.9926  v =  0.0000  0.0000  0.0000  1.0000  0.0000  0.0000  0.0000  0.0000  0.0000  0.0000      0.0000  0.0000  0.0000  0.0000  0.0000  0.0000  0.0000  0.0000  0.0000  0.0000
  o =  0.9926  v =  0.0000  0.0000  0.0000  0.0000  1.0000  0.0000  0.0000  0.0000  0.0000  0.0000      0.0000  0.0000  0.0000  0.0000  0.0000  0.0000  0.0000  0.0000  0.0000  0.0000
  o =  0.9926  v =  0.0000  0.0000  0.0000  0.0000  0.0000  1.0000  0.0000  0.0000  0.0000  0.0000      0.0000  0.0000  0.0000  0.0000  0.0000  0.0000  0.0000  0.0000  0.0000  0.0000
  o =  0.9926  v =  0.0000  0.0000  0.0000  0.0000  0.0000  0.0000  1.0000  0.0000  0.0000  0.0000      0.0000  0.0000  0.0000  0.0000  0.0000  0.0000  0.0000  0.0000  0.0000  0.0000
  o =  0.9926  v =  0.0000  0.0000  0.0000  0.0000  0.0000  0.0000  0.0000  1.0000  0.0000  0.0000      0.0000  0.0000  0.0000  0.0000  0.0000  0.0000  0.0000  0.0000  0.0000  0.0000
  o =  0.9926  v =  0.0000  0.0000  0.0000  0.0000  0.0000  0.0000  0.0000  0.0000  1.0000  0.0000      0.0000  0.0000  0.0000  0.0000  0.0000  0.0000  0.0000  0.0000  0.0000  0.0000
  o =  0.9926  v =  0.0000  0.0000  0.0000  0.0000  0.0000  0.0000  0.0000  0.0000  0.0000  1.0000      0.0000  0.0000  0.0000  0.0000  0.0000  0.0000  0.0000  0.0000  0.0000  0.0000
atom =  46  type =  2  l = 2
 
 onsite density matrix
 
spin component  1
 
  0.9926  0.0000  0.0000  0.0000  0.0000
  0.0000  0.9926  0.0000  0.0000  0.0000
  0.0000  0.0000  0.9926  0.0000  0.0000
  0.0000  0.0000  0.0000  0.9926  0.0000
  0.0000  0.0000  0.0000  0.0000  0.9926
 
spin component  2
 
  0.9926  0.0000  0.0000  0.0000  0.0000
  0.0000  0.9926  0.0000  0.0000  0.0000
  0.0000  0.0000  0.9926  0.0000  0.0000
  0.0000  0.0000  0.0000  0.9926  0.0000
  0.0000  0.0000  0.0000  0.0000  0.9926
 
 occupancies and eigenvectors
 
  o =  0.9926  v =  1.0000  0.0000  0.0000  0.0000  0.0000  0.0000  0.0000  0.0000  0.0000  0.0000      0.0000  0.0000  0.0000  0.0000  0.0000  0.0000  0.0000  0.0000  0.0000  0.0000
  o =  0.9926  v =  0.0000  1.0000  0.0000  0.0000  0.0000  0.0000  0.0000  0.0000  0.0000  0.0000      0.0000  0.0000  0.0000  0.0000  0.0000  0.0000  0.0000  0.0000  0.0000  0.0000
  o =  0.9926  v =  0.0000  0.0000  1.0000  0.0000  0.0000  0.0000  0.0000  0.0000  0.0000  0.0000      0.0000  0.0000  0.0000  0.0000  0.0000  0.0000  0.0000  0.0000  0.0000  0.0000
  o =  0.9926  v =  0.0000  0.0000  0.0000  1.0000  0.0000  0.0000  0.0000  0.0000  0.0000  0.0000      0.0000  0.0000  0.0000  0.0000  0.0000  0.0000  0.0000  0.0000  0.0000  0.0000
  o =  0.9926  v =  0.0000  0.0000  0.0000  0.0000  1.0000  0.0000  0.0000  0.0000  0.0000  0.0000      0.0000  0.0000  0.0000  0.0000  0.0000  0.0000  0.0000  0.0000  0.0000  0.0000
  o =  0.9926  v =  0.0000  0.0000  0.0000  0.0000  0.0000  1.0000  0.0000  0.0000  0.0000  0.0000      0.0000  0.0000  0.0000  0.0000  0.0000  0.0000  0.0000  0.0000  0.0000  0.0000
  o =  0.9926  v =  0.0000  0.0000  0.0000  0.0000  0.0000  0.0000  1.0000  0.0000  0.0000  0.0000      0.0000  0.0000  0.0000  0.0000  0.0000  0.0000  0.0000  0.0000  0.0000  0.0000
  o =  0.9926  v =  0.0000  0.0000  0.0000  0.0000  0.0000  0.0000  0.0000  1.0000  0.0000  0.0000      0.0000  0.0000  0.0000  0.0000  0.0000  0.0000  0.0000  0.0000  0.0000  0.0000
  o =  0.9926  v =  0.0000  0.0000  0.0000  0.0000  0.0000  0.0000  0.0000  0.0000  1.0000  0.0000      0.0000  0.0000  0.0000  0.0000  0.0000  0.0000  0.0000  0.0000  0.0000  0.0000
  o =  0.9926  v =  0.0000  0.0000  0.0000  0.0000  0.0000  0.0000  0.0000  0.0000  0.0000  1.0000      0.0000  0.0000  0.0000  0.0000  0.0000  0.0000  0.0000  0.0000  0.0000  0.0000
atom =  47  type =  2  l = 2
 
 onsite density matrix
 
spin component  1
 
  0.9926  0.0000  0.0000  0.0000  0.0000
  0.0000  0.9926  0.0000  0.0000  0.0000
  0.0000  0.0000  0.9926  0.0000  0.0000
  0.0000  0.0000  0.0000  0.9926  0.0000
  0.0000  0.0000  0.0000  0.0000  0.9926
 
spin component  2
 
  0.9926  0.0000  0.0000  0.0000  0.0000
  0.0000  0.9926  0.0000  0.0000  0.0000
  0.0000  0.0000  0.9926  0.0000  0.0000
  0.0000  0.0000  0.0000  0.9926  0.0000
  0.0000  0.0000  0.0000  0.0000  0.9926
 
 occupancies and eigenvectors
 
  o =  0.9926  v =  1.0000  0.0000  0.0000  0.0000  0.0000  0.0000  0.0000  0.0000  0.0000  0.0000      0.0000  0.0000  0.0000  0.0000  0.0000  0.0000  0.0000  0.0000  0.0000  0.0000
  o =  0.9926  v =  0.0000  1.0000  0.0000  0.0000  0.0000  0.0000  0.0000  0.0000  0.0000  0.0000      0.0000  0.0000  0.0000  0.0000  0.0000  0.0000  0.0000  0.0000  0.0000  0.0000
  o =  0.9926  v =  0.0000  0.0000  1.0000  0.0000  0.0000  0.0000  0.0000  0.0000  0.0000  0.0000      0.0000  0.0000  0.0000  0.0000  0.0000  0.0000  0.0000  0.0000  0.0000  0.0000
  o =  0.9926  v =  0.0000  0.0000  0.0000  1.0000  0.0000  0.0000  0.0000  0.0000  0.0000  0.0000      0.0000  0.0000  0.0000  0.0000  0.0000  0.0000  0.0000  0.0000  0.0000  0.0000
  o =  0.9926  v =  0.0000  0.0000  0.0000  0.0000  1.0000  0.0000  0.0000  0.0000  0.0000  0.0000      0.0000  0.0000  0.0000  0.0000  0.0000  0.0000  0.0000  0.0000  0.0000  0.0000
  o =  0.9926  v =  0.0000  0.0000  0.0000  0.0000  0.0000  1.0000  0.0000  0.0000  0.0000  0.0000      0.0000  0.0000  0.0000  0.0000  0.0000  0.0000  0.0000  0.0000  0.0000  0.0000
  o =  0.9926  v =  0.0000  0.0000  0.0000  0.0000  0.0000  0.0000  1.0000  0.0000  0.0000  0.0000      0.0000  0.0000  0.0000  0.0000  0.0000  0.0000  0.0000  0.0000  0.0000  0.0000
  o =  0.9926  v =  0.0000  0.0000  0.0000  0.0000  0.0000  0.0000  0.0000  1.0000  0.0000  0.0000      0.0000  0.0000  0.0000  0.0000  0.0000  0.0000  0.0000  0.0000  0.0000  0.0000
  o =  0.9926  v =  0.0000  0.0000  0.0000  0.0000  0.0000  0.0000  0.0000  0.0000  1.0000  0.0000      0.0000  0.0000  0.0000  0.0000  0.0000  0.0000  0.0000  0.0000  0.0000  0.0000
  o =  0.9926  v =  0.0000  0.0000  0.0000  0.0000  0.0000  0.0000  0.0000  0.0000  0.0000  1.0000      0.0000  0.0000  0.0000  0.0000  0.0000  0.0000  0.0000  0.0000  0.0000  0.0000
    EDDIAG:  cpu time   34.3798: real time   35.4478
  RMM-DIIS:  cpu time    5.3552: real time    5.3899
    ORTHCH:  cpu time    4.5533: real time    4.5758
       DOS:  cpu time    0.0060: real time    0.0061
    --------------------------------------------
      LOOP:  cpu time   44.7912: real time   46.3620

 eigenvalue-minimisations  :  1952
 total energy-change (2. order) : 0.1776447E+02  (-0.2300632E+05)
 number of electron     402.0000000 magnetization 
 augmentation part      402.0000000 magnetization 

 Free energy of the ion-electron system (eV)
  ---------------------------------------------------
  alpha Z        PSCENC =      1390.87733343
  Ewald energy   TEWEN  =    -31377.02334497
  -Hartree energ DENC   =    -11041.50188653
  -exchange      EXHF   =         0.00000000
  -V(xc)+E(xc)   XCENC  =      1760.70987903
  PAW double counting   =     34622.81385408   -34943.27019848
  entropy T*S    EENTRO =        -0.23624039
  eigenvalues    EBANDS =     -2626.48314993
  atomic energy  EATOM  =     42231.87821999
  Solvation  Ediel_sol  =         0.00000000
  ---------------------------------------------------
  free energy    TOTEN  =        17.76446623 eV

  energy without entropy =       18.00070662  energy(sigma->0) =       17.88258642


--------------------------------------------------------------------------------------------------------




----------------------------------------- Iteration    1(   2)  ---------------------------------------


    EDDIAG:  cpu time   14.6148: real time   18.6258
  RMM-DIIS:  cpu time    6.6540: real time    6.6680
    ORTHCH:  cpu time    1.6537: real time    1.6555
       DOS:  cpu time    0.0050: real time    0.0045
    --------------------------------------------
      LOOP:  cpu time   23.0065: real time   27.0351

 eigenvalue-minimisations  :  1952
 total energy-change (2. order) : 0.5483474E+03  (-0.4476275E+04)
 number of electron     402.0000000 magnetization 
 augmentation part      402.0000000 magnetization 

 Free energy of the ion-electron system (eV)
  ---------------------------------------------------
  alpha Z        PSCENC =      1390.87733343
  Ewald energy   TEWEN  =    -31377.02334497
  -Hartree energ DENC   =    -11041.50188653
  -exchange      EXHF   =         0.00000000
  -V(xc)+E(xc)   XCENC  =      1760.70987903
  PAW double counting   =     34622.81385408   -34943.27019848
  entropy T*S    EENTRO =        -0.06543883
  eigenvalues    EBANDS =     -2078.30656103
  atomic energy  EATOM  =     42231.87821999
  Solvation  Ediel_sol  =         0.00000000
  ---------------------------------------------------
  free energy    TOTEN  =       566.11185669 eV

  energy without entropy =      566.17729552  energy(sigma->0) =      566.14457610


--------------------------------------------------------------------------------------------------------




----------------------------------------- Iteration    1(   3)  ---------------------------------------


    EDDIAG:  cpu time   38.8571: real time   48.4352
  RMM-DIIS:  cpu time    5.9241: real time    8.2999
    ORTHCH:  cpu time    3.7584: real time    5.0078
       DOS:  cpu time    0.0040: real time    0.0145
    --------------------------------------------
      LOOP:  cpu time   48.5876: real time   62.0752

 eigenvalue-minimisations  :  1952
 total energy-change (2. order) :-0.6700156E+03  (-0.1270129E+04)
 number of electron     402.0000000 magnetization 
 augmentation part      402.0000000 magnetization 

 Free energy of the ion-electron system (eV)
  ---------------------------------------------------
  alpha Z        PSCENC =      1390.87733343
  Ewald energy   TEWEN  =    -31377.02334497
  -Hartree energ DENC   =    -11041.50188653
  -exchange      EXHF   =         0.00000000
  -V(xc)+E(xc)   XCENC  =      1760.70987903
  PAW double counting   =     34622.81385408   -34943.27019848
  entropy T*S    EENTRO =        -0.04382119
  eigenvalues    EBANDS =     -2748.34380819
  atomic energy  EATOM  =     42231.87821999
  Solvation  Ediel_sol  =         0.00000000
  ---------------------------------------------------
  free energy    TOTEN  =      -103.90377283 eV

  energy without entropy =     -103.85995164  energy(sigma->0) =     -103.88186223


--------------------------------------------------------------------------------------------------------




----------------------------------------- Iteration    1(   4)  ---------------------------------------


    EDDIAG:  cpu time   39.0421: real time   39.3417
  RMM-DIIS:  cpu time   12.6931: real time   17.1493
    ORTHCH:  cpu time    0.7779: real time    1.1179
       DOS:  cpu time    0.0040: real time    0.0042
    --------------------------------------------
      LOOP:  cpu time   52.5270: real time   57.6791

 eigenvalue-minimisations  :  4729
 total energy-change (2. order) :-0.1642007E+03  (-0.4986466E+03)
 number of electron     402.0000000 magnetization 
 augmentation part      402.0000000 magnetization 

 Free energy of the ion-electron system (eV)
  ---------------------------------------------------
  alpha Z        PSCENC =      1390.87733343
  Ewald energy   TEWEN  =    -31377.02334497
  -Hartree energ DENC   =    -11041.50188653
  -exchange      EXHF   =         0.00000000
  -V(xc)+E(xc)   XCENC  =      1760.70987903
  PAW double counting   =     34622.81385408   -34943.27019848
  entropy T*S    EENTRO =        -0.00015958
  eigenvalues    EBANDS =     -2912.58812235
  atomic energy  EATOM  =     42231.87821999
  Solvation  Ediel_sol  =         0.00000000
  ---------------------------------------------------
  free energy    TOTEN  =      -268.10442539 eV

  energy without entropy =     -268.10426580  energy(sigma->0) =     -268.10434559


--------------------------------------------------------------------------------------------------------




----------------------------------------- Iteration    1(   5)  ---------------------------------------


    EDDIAG:  cpu time    3.7974: real time    4.9453
  RMM-DIIS:  cpu time   14.3138: real time   19.4200
    ORTHCH:  cpu time    1.2348: real time    1.2763
       DOS:  cpu time    0.0050: real time    0.0046
    CHARGE:  cpu time    0.7169: real time    0.9674
    MIXING:  cpu time    0.0030: real time    0.0123
    --------------------------------------------
      LOOP:  cpu time   20.0809: real time   26.6686

 eigenvalue-minimisations  :  5027
 total energy-change (2. order) :-0.5645726E+02  (-0.6071990E+02)
 number of electron     403.9999615 magnetization 
 augmentation part      139.5731337 magnetization 

 Broyden mixing:
  rms(total) = 0.40596E+01    rms(broyden)= 0.40574E+01
  rms(prec ) = 0.54009E+01
  weight for this iteration     100.00

 Free energy of the ion-electron system (eV)
  ---------------------------------------------------
  alpha Z        PSCENC =      1390.87733343
  Ewald energy   TEWEN  =    -31377.02334497
  -Hartree energ DENC   =    -11041.50188653
  -exchange      EXHF   =         0.00000000
  -V(xc)+E(xc)   XCENC  =      1760.70987903
  PAW double counting   =     34622.81385408   -34943.27019848
  entropy T*S    EENTRO =        -0.10496912
  eigenvalues    EBANDS =     -2968.94057216
  atomic energy  EATOM  =     42231.87821999
  Solvation  Ediel_sol  =         0.00000000
  ---------------------------------------------------
  free energy    TOTEN  =      -324.56168474 eV

  energy without entropy =     -324.45671561  energy(sigma->0) =     -324.50920017


--------------------------------------------------------------------------------------------------------




----------------------------------------- Iteration    1(   6)  ---------------------------------------


    POTLOK:  cpu time    0.4669: real time    0.8050
    SETDIJ:  cpu time    0.1690: real time    0.1689
atom =  33  type =  2  l = 2
 
 onsite density matrix
 
spin component  1
 
  1.0230  0.0000 -0.0170  0.0000  0.0000
  0.0000  1.0185  0.0000 -0.0160  0.0000
 -0.0170  0.0000  1.0135  0.0000  0.0000
  0.0000 -0.0160  0.0000  1.0185  0.0000
  0.0000  0.0000  0.0000  0.0000  1.0015
 
spin component  2
 
  1.0230  0.0000 -0.0170  0.0000  0.0000
  0.0000  1.0185  0.0000 -0.0160  0.0000
 -0.0170  0.0000  1.0135  0.0000  0.0000
  0.0000 -0.0160  0.0000  1.0185  0.0000
  0.0000  0.0000  0.0000  0.0000  1.0015
 
 occupancies and eigenvectors
 
  o =  1.0006  v = -0.6045  0.0000 -0.7966  0.0000  0.0000  0.0000  0.0000  0.0000  0.0000  0.0000      0.0000  0.0000  0.0000  0.0000  0.0000  0.0000  0.0000  0.0000  0.0000  0.0000
  o =  1.0006  v =  0.0000  0.0000  0.0000  0.0000  0.0000 -0.6045  0.0000 -0.7966  0.0000  0.0000      0.0000  0.0000  0.0000  0.0000  0.0000  0.0000  0.0000  0.0000  0.0000  0.0000
  o =  1.0015  v =  0.0000  0.0000  0.0000  0.0000  1.0000  0.0000  0.0000  0.0000  0.0000  0.0000      0.0000  0.0000  0.0000  0.0000  0.0000  0.0000  0.0000  0.0000  0.0000  0.0000
  o =  1.0015  v =  0.0000  0.0000  0.0000  0.0000  0.0000  0.0000  0.0000  0.0000  0.0000  1.0000      0.0000  0.0000  0.0000  0.0000  0.0000  0.0000  0.0000  0.0000  0.0000  0.0000
  o =  1.0025  v =  0.0000  0.0000  0.0000  0.0000  0.0000  0.0000 -0.7071  0.0000 -0.7071  0.0000      0.0000  0.0000  0.0000  0.0000  0.0000  0.0000  0.0000  0.0000  0.0000  0.0000
[...]
    161       3.3640      2.00000
    162       3.5052      2.00000
    163       3.5608      2.00000
    164       3.6428      2.00000
    165       3.7078      2.00000
    166       3.7714      2.00000
    167       3.7856      2.00000
    168       3.8048      2.00000
    169       3.8619      2.00000
    170       3.9170      2.00000
    171       3.9520      2.00000
    172       3.9976      2.00000
    173       4.0348      2.00000
    174       4.0847      2.00000
    175       4.1778      2.00000
    176       4.2082      2.00000
    177       4.2650      2.00000
    178       4.2906      2.00000
    179       4.3499      2.00000
    180       4.3598      2.00000
    181       4.3912      2.00000
    182       4.4578      2.00000
    183       4.4962      2.00000
    184       4.5636      2.00000
    185       4.6114      2.00000
    186       4.7071      2.00000
    187       4.7111      2.00000
    188       4.7486      2.00000
    189       4.7555      2.00000
    190       4.7692      2.00000
    191       4.7844      2.00000
    192       4.8403      2.00000
    193       4.9799      2.00000
    194       5.0095      2.00000
    195       5.1567      2.00000
    196       5.1766      2.00000
    197       5.2617      2.00000
    198       5.3112      2.00000
    199       5.4785      1.98890
    200       5.5052      1.96936
    201       5.5277      1.93469
    202       5.6078      1.52299
    203       5.6709      0.85640
    204       9.6040      0.00000
    205      10.2448      0.00000
    206      10.3101      0.00000
    207      10.6971      0.00000
    208      10.8530      0.00000
    209      11.0552      0.00000
    210      11.1334      0.00000
    211      11.4181      0.00000
    212      11.6082      0.00000
    213      11.7673      0.00000
    214      11.7796      0.00000
    215      12.2072      0.00000
    216      12.2117      0.00000
    217      12.6378      0.00000
    218      12.9647      0.00000
    219      13.6259      0.00000
    220      13.7752      0.00000
    221      13.8826      0.00000
    222      13.9515      0.00000
    223      14.0388      0.00000
    224      14.1025      0.00000
    225      14.2794      0.00000
    226      14.4267      0.00000
    227      14.5445      0.00000
    228      14.7057      0.00000
    229      14.7283      0.00000
    230      14.8796      0.00000
    231      15.0264      0.00000
    232      15.0812      0.00000
    233      15.1352      0.00000
    234      15.1939      0.00000
    235      15.2843      0.00000
    236      15.3245      0.00000
    237      15.3600      0.00000
    238      15.4832      0.00000
    239      15.4964      0.00000
    240      15.6884      0.00000
    241      16.0138      0.00000
    242      16.2462      0.00000
    243      16.6652      0.00000
    244      16.9133      0.00000


--------------------------------------------------------------------------------------------------------


 soft charge-density along one line, spin component           1
         0         1         2         3         4         5         6         7         8         9
 total charge-density along one line
 
 pseudopotential strength for first ion, spin component:           1
 11.792 -14.317   0.016   0.033  -0.016  -0.021  -0.042   0.021
-14.317  17.399  -0.021  -0.043   0.021   0.026   0.054  -0.026
  0.016  -0.021  -7.819   0.019   0.050   9.261  -0.025  -0.067
  0.033  -0.043   0.019  -7.831  -0.019  -0.025   9.278   0.025
 -0.016   0.021   0.050  -0.019  -7.819  -0.067   0.025   9.261
 -0.021   0.026   9.261  -0.025  -0.067 -10.781   0.034   0.091
 -0.042   0.054  -0.025   9.278   0.025   0.034 -10.806  -0.034
  0.021  -0.026  -0.067   0.025   9.261   0.091  -0.034 -10.781
 total augmentation occupancy for first ion, spin component:           1
  2.570   0.339  -0.047  -0.112   0.047  -0.019  -0.044   0.019
  0.339   0.084  -0.053  -0.113   0.053  -0.009  -0.021   0.009
 -0.047  -0.053   2.076  -0.073  -0.054   0.229  -0.040  -0.066
 -0.112  -0.113  -0.073   1.916   0.073  -0.040   0.195   0.040
  0.047   0.053  -0.054   0.073   2.076  -0.066   0.040   0.229
 -0.019  -0.009   0.229  -0.040  -0.066   0.034  -0.010  -0.018
 -0.044  -0.021  -0.040   0.195   0.040  -0.010   0.027   0.010
  0.019   0.009  -0.066   0.040   0.229  -0.018   0.010   0.034


------------------------ aborting loop because EDIFF is reached ----------------------------------------


    CHARGE:  cpu time    0.9469: real time    0.9481
    FORLOC:  cpu time    0.0390: real time    0.0391
    FORNL :  cpu time   17.6313: real time   17.6402
    STRESS:  cpu time   21.6747: real time   21.6901
    FORCOR:  cpu time    0.5019: real time    0.5028
    FORHAR:  cpu time    0.1650: real time    0.1652
    MIXING:  cpu time    0.1720: real time    0.1720
    OFIELD:  cpu time    0.0000: real time    0.0000

  FORCE on cell =-STRESS in cart. coord.  units (eV):
  Direction    XX          YY          ZZ          XY          YZ          ZX
  --------------------------------------------------------------------------------------
  Alpha Z  1390.87733  1390.87733  1390.87733
  Ewald  -11991.31892-11991.31892 -7197.89142  -188.70123     0.00000     0.00000
  Hartree  2926.17274  2926.17274  5677.68016   -98.92657     0.00000     0.00000
  E(xc)   -2052.51129 -2052.51129 -2047.93795    -0.32888     0.00000     0.00000
  Local     956.70765   956.70765 -6450.60432   282.61608     0.00000     0.00000
  n-local    58.63223    58.15403   133.47762    -7.73250    -0.21074    -0.22479
  augment  2992.85419  2992.85419  2967.57464     1.82327     0.00000     0.00000
  Kinetic  5748.38417  5750.26218  5551.16128    11.15893     0.67445     0.72800
  Fock        0.00000     0.00000     0.00000     0.00000     0.00000     0.00000
  -------------------------------------------------------------------------------------
  Total      30.49802    30.49802    24.33734    -0.09037     0.00000     0.00000
  in kB      87.10266    87.10266    69.50770    -0.25809     0.00000     0.00000
  external pressure =       81.24 kB  Pullay stress =        0.00 kB


 VOLUME and BASIS-vectors are now :
 -----------------------------------------------------------------------------
  energy-cutoff  :      480.00
  volume of cell :      560.98
      direct lattice vectors                 reciprocal lattice vectors
     9.432027167  0.000000000  0.000000000     0.106021747  0.000000000  0.000000000
     0.000000000  9.432027167  0.000000000     0.000000000  0.106021747  0.000000000
     0.000000000  0.000000000  6.305806843     0.000000000  0.000000000  0.158583989

  length of vectors
     9.432027167  9.432027167  6.305806843     0.106021747  0.106021747  0.158583989


 FORCES acting on ions
    electron-ion (+dipol)            ewald-force                    non-local-force                 convergence-correction
 -----------------------------------------------------------------------------------------------
   0.986E+02 -.986E+02 -.195E+03   -.105E+03 0.105E+03 0.209E+03   0.670E+01 -.670E+01 -.137E+02   -.182E-01 0.182E-01 0.197E-01
   0.512E+02 -.512E+02 -.547E+01   -.542E+02 0.542E+02 0.579E+01   0.298E+01 -.298E+01 -.319E+00   -.118E-01 0.118E-01 -.138E-02
   0.252E+02 -.809E+02 -.115E+02   -.287E+02 0.840E+02 0.114E+02   0.353E+01 -.307E+01 0.122E+00   -.210E-03 -.192E-02 -.126E-02
   -.329E+02 0.710E+02 0.106E-05   0.303E+02 -.725E+02 0.287E-13   0.253E+01 0.156E+01 0.000E+00   0.132E-01 -.152E-01 -.787E-11
   -.710E+02 0.329E+02 -.106E-05   0.725E+02 -.303E+02 0.568E-13   -.156E+01 -.253E+01 0.000E+00   0.152E-01 -.132E-01 -.685E-11
   -.986E+02 0.986E+02 0.195E+03   0.105E+03 -.105E+03 -.209E+03   -.670E+01 0.670E+01 0.137E+02   0.182E-01 -.182E-01 -.197E-01
   -.512E+02 0.512E+02 0.547E+01   0.542E+02 -.542E+02 -.579E+01   -.298E+01 0.298E+01 0.319E+00   0.118E-01 -.118E-01 0.138E-02
   0.111E+02 0.442E+02 0.110E-04   -.143E+02 -.435E+02 0.832E-15   0.307E+01 -.559E+00 -.271E-19   0.443E-01 -.465E-01 -.725E-12
   -.111E+02 -.442E+02 -.110E-04   0.143E+02 0.435E+02 0.104E-13   -.307E+01 0.559E+00 0.271E-19   -.443E-01 0.465E-01 -.360E-11
   -.442E+02 -.111E+02 -.110E-04   0.435E+02 0.143E+02 -.299E-13   0.559E+00 -.307E+01 0.000E+00   0.465E-01 -.443E-01 0.582E-11
   -.512E+02 0.512E+02 -.547E+01   0.542E+02 -.542E+02 0.579E+01   -.298E+01 0.298E+01 -.319E+00   0.118E-01 -.118E-01 -.138E-02
   -.182E+01 -.182E+01 0.291E-05   0.221E+01 0.221E+01 -.726E-14   -.377E+00 -.377E+00 0.000E+00   0.470E-02 0.470E-02 -.156E-11
   -.254E+03 -.254E+03 0.143E-06   0.275E+03 0.275E+03 -.352E-13   -.207E+02 -.207E+02 0.271E-19   0.106E-01 0.106E-01 0.447E-11
   0.252E+02 -.809E+02 0.115E+02   -.287E+02 0.840E+02 -.114E+02   0.353E+01 -.307E+01 -.122E+00   -.210E-03 -.192E-02 0.126E-02
   -.809E+02 0.252E+02 0.115E+02   0.840E+02 -.287E+02 -.114E+02   -.307E+01 0.353E+01 -.122E+00   -.192E-02 -.210E-03 0.126E-02
   0.107E+02 0.107E+02 -.138E-04   -.121E+02 -.121E+02 -.315E-13   0.141E+01 0.141E+01 0.000E+00   0.112E-01 0.112E-01 0.206E-11
   -.950E+02 -.950E+02 0.106E-04   0.998E+02 0.998E+02 -.217E-14   -.474E+01 -.474E+01 -.217E-18   0.880E-02 0.880E-02 -.468E-12
   -.986E+02 0.986E+02 -.195E+03   0.105E+03 -.105E+03 0.209E+03   -.670E+01 0.670E+01 -.137E+02   0.182E-01 -.182E-01 0.197E-01
   0.442E+02 0.111E+02 0.110E-04   -.435E+02 -.143E+02 -.196E-13   -.559E+00 0.307E+01 0.000E+00   -.465E-01 0.443E-01 0.112E-11
   -.809E+02 0.252E+02 -.115E+02   0.840E+02 -.287E+02 0.114E+02   -.307E+01 0.353E+01 0.122E+00   -.192E-02 -.210E-03 -.126E-02
   -.107E+02 -.107E+02 0.138E-04   0.121E+02 0.121E+02 -.527E-13   -.141E+01 -.141E+01 0.000E+00   -.112E-01 -.112E-01 -.278E-12
   0.986E+02 -.986E+02 0.195E+03   -.105E+03 0.105E+03 -.209E+03   0.670E+01 -.670E+01 0.137E+02   -.182E-01 0.182E-01 -.197E-01
   0.512E+02 -.512E+02 0.547E+01   -.542E+02 0.542E+02 -.579E+01   0.298E+01 -.298E+01 0.319E+00   -.118E-01 0.118E-01 0.138E-02
   0.329E+02 -.710E+02 -.106E-05   -.303E+02 0.725E+02 -.376E-14   -.253E+01 -.156E+01 0.000E+00   -.132E-01 0.152E-01 0.297E-11
   0.950E+02 0.950E+02 -.106E-04   -.998E+02 -.998E+02 -.561E-15   0.474E+01 0.474E+01 0.217E-18   -.880E-02 -.880E-02 0.853E-12
   0.254E+03 0.254E+03 -.143E-06   -.275E+03 -.275E+03 -.587E-13   0.207E+02 0.207E+02 -.271E-19   -.106E-01 -.106E-01 -.106E-11
   0.710E+02 -.329E+02 0.106E-05   -.725E+02 0.303E+02 0.240E-13   0.156E+01 0.253E+01 0.000E+00   -.152E-01 0.132E-01 -.223E-12
   -.252E+02 0.809E+02 0.115E+02   0.287E+02 -.840E+02 -.114E+02   -.353E+01 0.307E+01 -.122E+00   0.210E-03 0.192E-02 0.126E-02
   0.809E+02 -.252E+02 -.115E+02   -.840E+02 0.287E+02 0.114E+02   0.307E+01 -.353E+01 0.122E+00   0.192E-02 0.210E-03 -.126E-02
   -.252E+02 0.809E+02 -.115E+02   0.287E+02 -.840E+02 0.114E+02   -.353E+01 0.307E+01 0.122E+00   0.210E-03 0.192E-02 -.126E-02
   0.182E+01 0.182E+01 -.291E-05   -.221E+01 -.221E+01 -.286E-13   0.377E+00 0.377E+00 0.000E+00   -.470E-02 -.470E-02 0.561E-12
   0.809E+02 -.252E+02 0.115E+02   -.840E+02 0.287E+02 -.114E+02   0.307E+01 -.353E+01 -.122E+00   0.192E-02 0.210E-03 0.126E-02
   0.386E-11 -.578E-11 -.334E-12   0.426E-13 0.726E-13 -.878E-13   0.000E+00 0.000E+00 0.000E+00   -.577E-11 -.369E-11 0.178E-11
   -.119E+03 -.119E+03 -.281E+02   0.122E+03 0.122E+03 0.321E+02   -.314E+01 -.314E+01 -.394E+01   0.256E-01 0.256E-01 -.194E-01
   0.119E+03 0.119E+03 0.281E+02   -.122E+03 -.122E+03 -.321E+02   0.314E+01 0.314E+01 0.394E+01   -.256E-01 -.256E-01 0.194E-01
   0.163E-12 0.232E-12 0.121E-11   -.631E-13 0.977E-13 0.911E-13   0.000E+00 0.000E+00 0.000E+00   -.475E-11 -.330E-11 0.386E-12
   -.119E+03 -.119E+03 0.281E+02   0.122E+03 0.122E+03 -.321E+02   -.314E+01 -.314E+01 0.394E+01   0.256E-01 0.256E-01 0.194E-01
   -.287E-12 0.178E-11 0.104E-11   -.290E-12 0.130E-12 0.200E-13   0.000E+00 0.000E+00 0.000E+00   -.109E-11 0.600E-11 0.269E-11
   0.119E+03 0.119E+03 -.281E+02   -.122E+03 -.122E+03 0.321E+02   0.314E+01 0.314E+01 -.394E+01   -.256E-01 -.256E-01 -.194E-01
   0.124E+03 -.124E+03 -.738E+02   -.127E+03 0.127E+03 0.729E+02   0.346E+01 -.346E+01 0.908E+00   -.449E-01 0.449E-01 0.709E-02
   -.124E+03 0.124E+03 -.738E+02   0.127E+03 -.127E+03 0.729E+02   -.346E+01 0.346E+01 0.908E+00   0.449E-01 -.449E-01 0.709E-02
   0.185E-11 -.273E-12 -.655E-11   -.427E-13 0.823E-13 -.380E-13   0.000E+00 0.000E+00 0.000E+00   0.102E-11 0.222E-11 0.207E-11
   -.378E-12 0.168E-11 -.202E-12   0.156E-12 -.182E-12 -.143E-13   0.000E+00 0.000E+00 0.000E+00   0.841E-11 0.782E-12 -.260E-11
   0.124E+03 -.124E+03 0.738E+02   -.127E+03 0.127E+03 -.729E+02   0.346E+01 -.346E+01 -.908E+00   -.449E-01 0.449E-01 -.709E-02
   -.124E+03 0.124E+03 0.738E+02   0.127E+03 -.127E+03 -.729E+02   -.346E+01 0.346E+01 -.908E+00   0.449E-01 -.449E-01 -.709E-02
   0.177E-11 -.347E-12 0.548E-11   0.313E-12 -.111E-12 -.444E-13   0.000E+00 0.000E+00 0.000E+00   0.465E-11 0.205E-11 -.528E-13
   0.368E-11 -.607E-11 0.125E-11   0.170E-12 0.211E-12 0.622E-13   0.000E+00 0.000E+00 0.000E+00   -.133E-11 -.322E-11 -.196E-11
 -----------------------------------------------------------------------------------------------
   0.481E-10 -.341E-10 -.985E-10   0.994E-13 0.730E-16 -.309E-12   -.133E-14 0.222E-14 0.333E-15   0.568E-11 0.727E-11 -.316E-12
 
 
 POSITION                                       TOTAL-FORCE (eV/Angst)
 -----------------------------------------------------------------------------------
      0.96742      8.46461      4.57633        -0.012266      0.012266     -0.001499
      3.79582      5.63620      4.72542        -0.001599      0.001599      0.001983
      8.52031      5.62284      4.72988         0.016773      0.016977      0.001730
      6.13454      1.46120      0.00000        -0.015235      0.006714      0.000000
      7.97083      3.29748      0.00000        -0.006714      0.015235      0.000000
      8.46461      0.96742      1.72948         0.012266     -0.012266      0.001499
      5.63620      3.79582      1.58039         0.001599     -0.001599     -0.001983
      6.07365      1.49388      3.15290        -0.023549      0.022431      0.000000
      3.35837      7.93815      3.15290         0.023549     -0.022431      0.000000
      7.93815      3.35837      3.15290        -0.022431      0.023549      0.000000
      5.63620      3.79582      4.72542         0.001599     -0.001599      0.001983
      6.12370      6.12370      0.00000         0.010925      0.010925      0.000000
      7.94788      7.94788      0.00000         0.013727      0.013727      0.000000
      8.52031      5.62284      1.57593         0.016773      0.016977     -0.001730
      5.62284      8.52031      1.57593         0.016977      0.016773     -0.001730
      6.16137      6.16137      3.15290         0.008266      0.008266      0.000000
      7.96829      7.96829      3.15290         0.011160      0.011160      0.000000
      8.46461      0.96742      4.57633         0.012266     -0.012266     -0.001499
      1.49388      6.07365      3.15290         0.022431     -0.023549      0.000000
      5.62284      8.52031      4.72988         0.016977      0.016773      0.001730
      3.27066      3.27066      3.15290        -0.008266     -0.008266      0.000000
      0.96742      8.46461      1.72948        -0.012266      0.012266      0.001499
      3.79582      5.63620      1.58039        -0.001599      0.001599     -0.001983
      3.29748      7.97083      0.00000         0.015235     -0.006714      0.000000
      1.46374      1.46374      3.15290        -0.011160     -0.011160      0.000000
      1.48415      1.48415      0.00000        -0.013727     -0.013727      0.000000
      1.46120      6.13454      0.00000         0.006714     -0.015235      0.000000
      0.91172      3.80919      1.57593        -0.016773     -0.016977     -0.001730
      3.80919      0.91172      4.72988        -0.016977     -0.016773      0.001730
      0.91172      3.80919      4.72988        -0.016773     -0.016977      0.001730
      3.30833      3.30833      0.00000        -0.010925     -0.010925      0.000000
      3.80919      0.91172      1.57593        -0.016977     -0.016773     -0.001730
      4.71601      4.71601      3.15290         0.000000      0.000000      0.000000
      7.09506      7.09506      4.75113         0.001945      0.001945      0.006846
      2.33697      2.33697      1.55468        -0.001945     -0.001945     -0.006846
      0.00000      0.00000      3.15290         0.000000      0.000000      0.000000
      7.09506      7.09506      1.55468         0.001945      0.001945     -0.006846
      0.00000      4.71601      3.15290         0.000000      0.000000      0.000000
      2.33697      2.33697      4.75113        -0.001945     -0.001945      0.006846
      2.34238      7.08964      4.72473         0.012360     -0.012360     -0.015061
      7.08964      2.34238      4.72473        -0.012360      0.012360     -0.015061
      4.71601      0.00000      3.15290         0.000000      0.000000      0.000000
      0.00000      4.71601      0.00000         0.000000      0.000000      0.000000
      2.34238      7.08964      1.58108         0.012360     -0.012360      0.015061
      7.08964      2.34238      1.58108        -0.012360      0.012360      0.015061
      4.71601      0.00000      0.00000         0.000000      0.000000      0.000000
      4.71601      4.71601      0.00000         0.000000      0.000000      0.000000
 -----------------------------------------------------------------------------------
    total drift:                                0.000000      0.000000      0.000000


--------------------------------------------------------------------------------------------------------



  FREE ENERGIE OF THE ION-ELECTRON SYSTEM (eV)
  ---------------------------------------------------
  free  energy   TOTEN  =      -286.92364100 eV

  energy  without entropy=     -286.81963598  energy(sigma->0) =     -286.87163849
 
 d Force = 0.1396739E-02[ 0.845E-03, 0.195E-02]  d Energy = 0.1345794E-02 0.509E-04
 d Force =-0.2896444E+01[-0.289E+01,-0.290E+01]  d Ewald  =-0.2896438E+01-0.513E-05


--------------------------------------------------------------------------------------------------------


    POTLOK:  cpu time    0.6689: real time    0.6699


--------------------------------------------------------------------------------------------------------


 Quasi-Newton relaxation of ions (Broydens 2nd method)
  g(Force)  = 0.749E-03   g(Stress)= 0.000E+00

 retain information from N=  4 steps
 eigenvalues of (default step * inverse Hessian matrix)
  average eigenvalue of G=   4.3680
 eigenvalue spectrum of G is  7.7619  7.7619  0.9742  0.9742


--------------------------------------------------------------------------------------------------------


  
 reached required accuracy - stopping structural energy minimisation
 writing wavefunctions
     LOOP+:  cpu time  282.6270: real time  343.1828
    4ORBIT:  cpu time    0.0000: real time    0.0000

 total amount of memory used by VASP on root node    52824. kBytes
========================================================================

   base      :      30000. kBytes
   nonl-proj :       5182. kBytes
   fftplans  :       1450. kBytes
   grid      :       2326. kBytes
   one-center:         93. kBytes
   wavefun   :      13773. kBytes
 
  
  
 General timing and accounting informations for this job:
 ========================================================
  
                  Total CPU time used (sec):     4939.851
                            User time (sec):     4895.402
                          System time (sec):       44.449
                         Elapsed time (sec):     5286.836
  
                   Maximum memory used (kb):       66768.
                   Average memory used (kb):           0.
  
                          Minor page faults:        10185
                          Major page faults:            0
                 Voluntary context switches:         2331
