 running on   32 total cores
 distrk:  each k-point on   32 cores,    1 groups
 distr:  one band on    8 cores,    4 groups
 using from now: INCAR     
 vasp.5.4.1 05Feb16 (build Dec 31 2016 05:41:53) complex                        
  
 POSCAR found type information on POSCAR  O  Sn H 
 POSCAR found :  3 types and      48 ions
 scaLAPACK will be used

 ----------------------------------------------------------------------------- 
|                                                                             |
|  ADVICE TO THIS USER RUNNING 'VASP/VAMP'   (HEAR YOUR MASTER'S VOICE ...):  |
|                                                                             |
|      You have a (more or less) 'large supercell' and for larger cells       |
|      it might be more efficient to use real space projection opertators     |
|      So try LREAL= Auto  in the INCAR   file.                               |
|      Mind: At the moment your POTCAR file does not contain real space       |
|       projectors, and has to be modified,  BUT if you                       |
|      want to do an extremely  accurate calculation you might also keep the  |
|      reciprocal projection scheme          (i.e. LREAL=.FALSE.)             |
|                                                                             |
 ----------------------------------------------------------------------------- 

 LDA part: xc-table for Pade appr. of Perdew
 POSCAR, INCAR and KPOINTS ok, starting setup
 FFT: planning ...
 WAVECAR not read
 entering main loop
       N       E                     dE             d eps       ncg     rms          rms(c)
RMM:   1     0.712176940988E+01    0.71218E+01   -0.22908E+05  1952   0.234E+03
RMM:   2     0.546400369397E+03    0.53928E+03   -0.44522E+04  1952   0.431E+02
RMM:   3    -0.106709917308E+03   -0.65311E+03   -0.12507E+04  1952   0.208E+02
RMM:   4    -0.267561884291E+03   -0.16085E+03   -0.48859E+03  4739   0.158E+02
RMM:   5    -0.333025410357E+03   -0.65464E+02   -0.62177E+02  5041   0.395E+01BRMIX: very serious problems
 the old and the new charge density differ
 old charge density:   403.00000 new  404.00000
    0.403E+01
RMM:   6    -0.294128917941E+03    0.38896E+02   -0.19580E+02  4673   0.255E+01    0.168E+01
RMM:   7    -0.296184870717E+03   -0.20560E+01   -0.41413E+01  4940   0.924E+00    0.113E+01
RMM:   8    -0.296720376112E+03   -0.53551E+00   -0.79986E+00  4786   0.419E+00    0.864E+00
RMM:   9    -0.296082386974E+03    0.63799E+00   -0.22469E+00  4646   0.312E+00    0.372E+00
RMM:  10    -0.296020294563E+03    0.62092E-01   -0.56183E-01  4713   0.147E+00    0.134E+00
RMM:  11    -0.296047763809E+03   -0.27469E-01   -0.17164E-01  4663   0.796E-01    0.169E+00
RMM:  12    -0.296023983623E+03    0.23780E-01   -0.26027E-02  4999   0.248E-01    0.810E-01
RMM:  13    -0.296024006202E+03   -0.22579E-04   -0.28088E-02  4641   0.275E-01    0.760E-01
RMM:  14    -0.296021702841E+03    0.23034E-02   -0.13952E-03  3932   0.757E-02    0.538E-01
RMM:  15    -0.296019464207E+03    0.22386E-02   -0.39262E-03  4049   0.103E-01    0.115E-01
RMM:  16    -0.296019538538E+03   -0.74330E-04   -0.18797E-04  2680   0.319E-02
   1 F= -.29601954E+03 E0= -.29597895E+03  d E =-.296020E+03
 BRION: g(F)=  0.804E+00 g(S)=  0.000E+00
 bond charge predicted
       N       E                     dE             d eps       ncg     rms          rms(c)
RMM:   1    -0.294179121172E+03    0.18403E+01   -0.19275E+02  1952   0.290E+01
RMM:   2    -0.297911325427E+03   -0.37322E+01   -0.48878E+01  1952   0.150E+01
RMM:   3    -0.386586381884E+03   -0.88675E+02   -0.63142E+02  1952   0.285E+01
RMM:   4    -0.720806164320E+02    0.31451E+03   -0.10343E+04  4860   0.121E+02
RMM:   5    -0.185102427768E+03   -0.11302E+03   -0.11449E+03  5238   0.316E+01    0.118E+01
RMM:   6    -0.241524463829E+03   -0.56422E+02   -0.36820E+02  4721   0.195E+01    0.590E+00
RMM:   7    -0.271763228641E+03   -0.30239E+02   -0.18087E+02  4729   0.908E+00    0.513E+00
RMM:   8    -0.286146727834E+03   -0.14383E+02   -0.89024E+01  4799   0.576E+00    0.408E+00
RMM:   9    -0.293339476865E+03   -0.71927E+01   -0.52022E+01  4820   0.432E+00    0.262E+00
RMM:  10    -0.293999632542E+03   -0.66016E+00   -0.10893E+01  4858   0.235E+00    0.209E+00
RMM:  11    -0.295701647201E+03   -0.17020E+01   -0.12219E+01  5235   0.132E+00    0.296E+00
RMM:  12    -0.296053919783E+03   -0.35227E+00   -0.45010E+00  4371   0.899E-01    0.359E+00
RMM:  13    -0.296481430202E+03   -0.42751E+00   -0.36786E+00  4834   0.676E-01    0.406E+00
RMM:  14    -0.296633245194E+03   -0.15181E+00   -0.13976E+00  4560   0.339E-01    0.410E+00
RMM:  15    -0.296718727848E+03   -0.85483E-01   -0.17650E-01  4703   0.434E-01    0.423E+00
RMM:  16    -0.296962216006E+03   -0.24349E+00   -0.14799E-01  4669   0.536E-01    0.471E+00
RMM:  17    -0.297207411932E+03   -0.24520E+00   -0.72585E-02  4687   0.331E-01    0.524E+00
RMM:  18    -0.297172985155E+03    0.34427E-01   -0.73496E-03  4716   0.118E-01    0.520E+00
RMM:  19    -0.297552184914E+03   -0.37920E+00   -0.62326E-02  4539   0.311E-01    0.590E+00
RMM:  20    -0.296884834693E+03    0.66735E+00   -0.15318E-01  4659   0.514E-01    0.462E+00
RMM:  21    -0.296234232512E+03    0.65060E+00   -0.56049E-01  4647   0.947E-01    0.197E+00
RMM:  22    -0.296233964744E+03    0.26777E-03   -0.49493E-02  5337   0.268E-01    0.181E+00
RMM:  23    -0.296285555543E+03   -0.51591E-01   -0.84687E-03  4415   0.154E-01    0.225E+00
RMM:  24    -0.296161364062E+03    0.12419E+00   -0.82331E-02  4624   0.385E-01    0.654E-01
RMM:  25    -0.296212270942E+03   -0.50907E-01   -0.73123E-02  4582   0.346E-01    0.212E+00
RMM:  26    -0.296229957924E+03   -0.17687E-01   -0.11081E-02  4921   0.142E-01    0.250E+00
RMM:  27    -0.296222742325E+03    0.72156E-02   -0.30319E-04  3302   0.462E-02    0.241E+00
WARNING in EDDRMM: call to ZHEGV failed, returncode =   6  3 35
RMM:  28    -0.296225402423E+03   -0.26601E-02   -0.20813E-04  2647   0.252E-02    0.245E+00
RMM:  29    -0.296209776848E+03    0.15626E-01   -0.25743E-03  4205   0.938E-02    0.209E+00
RMM:  30    -0.296179097406E+03    0.30679E-01   -0.53426E-03  4400   0.110E-01    0.138E+00
RMM:  31    -0.296161336582E+03    0.17761E-01   -0.69766E-03  4436   0.126E-01    0.708E-01
RMM:  32    -0.296160385363E+03    0.95122E-03   -0.10934E-03  3895   0.588E-02    0.582E-01
RMM:  33    -0.296159503291E+03    0.88207E-03   -0.16313E-04  2471   0.276E-02    0.536E-01
RMM:  34    -0.296160706063E+03   -0.12028E-02   -0.14691E-02  4466   0.161E-01    0.570E-01
RMM:  35    -0.296155060085E+03    0.56460E-02   -0.13726E-03  3980   0.711E-02    0.182E-01
RMM:  36    -0.296154963293E+03    0.96792E-04   -0.23500E-04  2832   0.268E-02
   2 F= -.29615496E+03 E0= -.29611450E+03  d E =-.135425E+00
 BRION: g(F)=  0.475E+00 g(S)=  0.000E+00 retain N=  1 mean eig= 0.57
 eig:   0.575
 bond charge predicted
       N       E                     dE             d eps       ncg     rms          rms(c)
RMM:   1    -0.296256783917E+03   -0.10172E+00   -0.42167E+01  1952   0.134E+01
RMM:   2    -0.296707149389E+03   -0.45037E+00   -0.76010E+00  1952   0.515E+00
RMM:   3    -0.309798039074E+03   -0.13091E+02   -0.20023E+01  1952   0.980E+00
RMM:   4    -0.219416059660E+03    0.90382E+02   -0.28833E+03  4749   0.633E+01
RMM:   5    -0.263239069555E+03   -0.43823E+02   -0.12830E+02  5008   0.114E+01    0.820E+00
RMM:   6    -0.279946522963E+03   -0.16707E+02   -0.89893E+01  4701   0.931E+00    0.490E+00
RMM:   7    -0.289008573637E+03   -0.90621E+01   -0.56691E+01  4787   0.440E+00    0.302E+00
RMM:   8    -0.294748096428E+03   -0.57395E+01   -0.20083E+01  4721   0.352E+00    0.361E+00
RMM:   9    -0.295035163401E+03   -0.28707E+00   -0.61249E+00  4714   0.207E+00    0.257E+00
RMM:  10    -0.295552052500E+03   -0.51689E+00   -0.23635E+00  4770   0.909E-01    0.272E+00
RMM:  11    -0.295978135346E+03   -0.42608E+00   -0.50506E+00  4737   0.748E-01    0.220E+00
RMM:  12    -0.296290266844E+03   -0.31213E+00   -0.12129E+00  4673   0.385E-01    0.226E+00
RMM:  13    -0.296557289860E+03   -0.26702E+00   -0.34162E+00  4391   0.321E-01    0.220E+00
RMM:  14    -0.296470078013E+03    0.87212E-01   -0.78518E-02  4230   0.166E-01    0.210E+00
RMM:  15    -0.296435653233E+03    0.34425E-01   -0.17054E-02  4373   0.118E-01    0.188E+00
RMM:  16    -0.296326144419E+03    0.10951E+00   -0.19843E-01  4632   0.606E-01    0.111E+00
RMM:  17    -0.296318312137E+03    0.78323E-02   -0.53899E-03  4440   0.151E-01    0.869E-01
RMM:  18    -0.296301106699E+03    0.17205E-01   -0.75606E-03  4418   0.140E-01    0.551E-01
RMM:  19    -0.296292914254E+03    0.81924E-02   -0.10207E-02  4457   0.155E-01    0.263E-01
RMM:  20    -0.296291919526E+03    0.99473E-03   -0.17806E-03  3911   0.722E-02    0.183E-01
RMM:  21    -0.296291719385E+03    0.20014E-03   -0.63044E-04  3628   0.428E-02    0.258E-01
RMM:  22    -0.296291261018E+03    0.45837E-03   -0.46051E-04  3524   0.348E-02    0.183E-01
RMM:  23    -0.296291074551E+03    0.18647E-03   -0.16609E-04  2506   0.237E-02    0.105E-01
RMM:  24    -0.296291064195E+03    0.10356E-04   -0.16222E-04  2529   0.245E-02
   3 F= -.29629106E+03 E0= -.29625113E+03  d E =-.136101E+00
 BRION: g(F)=  0.853E-02 g(S)=  0.000E+00 retain N=  2 mean eig= 2.93
 eig:   0.509  5.348
 bond charge predicted
       N       E                     dE             d eps       ncg     rms          rms(c)
RMM:   1    -0.296290739080E+03    0.33547E-03   -0.22978E+00  1952   0.311E+00
RMM:   2    -0.296303970005E+03   -0.13231E-01   -0.22174E-01  1952   0.103E+00
RMM:   3    -0.297451302778E+03   -0.11473E+01   -0.32978E-01  1952   0.112E+00
RMM:   4    -0.281960167212E+03    0.15491E+02   -0.41610E+02  4626   0.223E+01
RMM:   5    -0.295062046337E+03   -0.13102E+02   -0.66514E+01  4171   0.462E+00    0.330E+00
RMM:   6    -0.295333811482E+03   -0.27177E+00   -0.15313E+01  4683   0.372E+00    0.347E+00
RMM:   7    -0.295164606441E+03    0.16921E+00   -0.15370E+00  4734   0.126E+00    0.174E+00
RMM:   8    -0.296030582893E+03   -0.86598E+00   -0.25121E+00  4466   0.627E-01    0.200E+00
RMM:   9    -0.296060350216E+03   -0.29767E-01   -0.16700E+00  4528   0.406E-01    0.115E+00
RMM:  10    -0.296049170027E+03    0.11180E-01   -0.12663E-01  4635   0.179E-01    0.780E-01
RMM:  11    -0.296039402703E+03    0.97673E-02   -0.10457E-02  4378   0.104E-01    0.589E-01
WARNING in EDDRMM: call to ZHEGV failed, returncode =   6  3 50
RMM:  12    -0.296031431516E+03    0.79712E-02   -0.14180E-02  4427   0.131E-01    0.222E-01
RMM:  13    -0.296317391863E+03   -0.28596E+00   -0.13310E-01  4136   0.918E-02    0.382E-01
RMM:  14    -0.296300483964E+03    0.16908E-01   -0.42351E-01  2577   0.766E-02    0.401E-01
RMM:  15    -0.296301216703E+03   -0.73274E-03   -0.28687E-02  2496   0.328E-02    0.406E-01
RMM:  16    -0.296300606674E+03    0.61003E-03   -0.18560E-03  2500   0.227E-02    0.384E-01
RMM:  17    -0.296300213226E+03    0.39345E-03   -0.31157E-04  2312   0.195E-02    0.377E-01
RMM:  18    -0.296299929383E+03    0.28384E-03   -0.55844E-05  2123   0.167E-02    0.366E-01
RMM:  19    -0.296299659251E+03    0.27013E-03   -0.90802E-05  2386   0.206E-02    0.354E-01
RMM:  20    -0.296297014488E+03    0.26448E-02   -0.17604E-03  4020   0.687E-02    0.202E-01
RMM:  21    -0.296296089372E+03    0.92512E-03   -0.14397E-03  4009   0.568E-02    0.941E-02
RMM:  22    -0.296296132473E+03   -0.43101E-04   -0.11734E-04  2425   0.222E-02
   4 F= -.29629613E+03 E0= -.29625614E+03  d E =-.506828E-02
 BRION: g(F)=  0.275E-02 g(S)=  0.000E+00 retain N=  3 mean eig= 2.32
 eig:   5.728  0.474  0.754
 bond charge predicted
       N       E                     dE             d eps       ncg     rms          rms(c)
RMM:   1    -0.296295542847E+03    0.54653E-03   -0.59715E-01  1952   0.161E+00
RMM:   2    -0.296298085844E+03   -0.25430E-02   -0.39491E-02  1952   0.505E-01
RMM:   3    -0.297011666419E+03   -0.71358E+00   -0.87146E-02  1952   0.322E-01
RMM:   4    -0.295284013150E+03    0.17277E+01   -0.77060E+01  4479   0.511E+00
RMM:   5    -0.296699742373E+03   -0.14157E+01   -0.56841E+00  3688   0.667E-01    0.107E-01
RMM:   6    -0.296297953020E+03    0.40179E+00   -0.89023E-01  3904   0.198E-01    0.153E-01
RMM:   7    -0.296297825928E+03    0.12709E-03   -0.97267E-03  3055   0.428E-02    0.707E-02
RMM:   8    -0.296297807175E+03    0.18753E-04   -0.55016E-04  2408   0.246E-02
   5 F= -.29629781E+03 E0= -.29625781E+03  d E =-.167470E-02
 BRION: g(F)=  0.131E-02 g(S)=  0.000E+00 retain N=  3 mean eig= 0.73
 eig:   0.568  0.807  0.807
 bond charge predicted
       N       E                     dE             d eps       ncg     rms          rms(c)
RMM:   1    -0.296297484338E+03    0.34159E-03   -0.44338E-01  1952   0.137E+00
RMM:   2    -0.296299175507E+03   -0.16912E-02   -0.25981E-02  1952   0.415E-01
RMM:   3    -0.296503010984E+03   -0.20384E+00   -0.32866E-02  1952   0.226E-01
RMM:   4    -0.296303415626E+03    0.19960E+00   -0.19676E+01  4343   0.141E+00
RMM:   5    -0.296299032448E+03    0.43832E-02   -0.47097E-02  3361   0.104E-01    0.114E-01
RMM:   6    -0.296299690004E+03   -0.65756E-03   -0.34531E-03  3692   0.600E-02    0.263E-01
RMM:   7    -0.296298999623E+03    0.69038E-03   -0.58590E-04  3288   0.373E-02    0.400E-02
RMM:   8    -0.296299012209E+03   -0.12586E-04   -0.10393E-04  2369   0.209E-02
   6 F= -.29629901E+03 E0= -.29625885E+03  d E =-.120503E-02
 BRION: g(F)=  0.102E-02 g(S)=  0.000E+00 retain N=  4 mean eig= 0.97
 eig:   1.302  1.302  0.640  0.640
 bond charge predicted
       N       E                     dE             d eps       ncg     rms          rms(c)
RMM:   1    -0.296298862421E+03    0.13720E-03   -0.44119E-01  1952   0.133E+00
RMM:   2    -0.296300343212E+03   -0.14808E-02   -0.24254E-02  1952   0.396E-01
RMM:   3    -0.303124115412E+03   -0.68238E+01   -0.38218E-02  1952   0.201E-01
RMM:   4    -0.296222885165E+03    0.69012E+01   -0.22585E+02  4301   0.262E+00
RMM:   5    -0.296952699781E+03   -0.72981E+00   -0.10616E+00  3090   0.159E-01    0.161E-01
RMM:   6    -0.296304583958E+03    0.64812E+00   -0.10871E+00  3888   0.204E-01    0.427E-01
RMM:   7    -0.296299985546E+03    0.45984E-02   -0.14102E-02  3673   0.627E-02    0.395E-02
RMM:   8    -0.296300097034E+03   -0.11149E-03   -0.10583E-03  2418   0.244E-02    0.219E-02
RMM:   9    -0.296300085561E+03    0.11474E-04   -0.90938E-05  2230   0.152E-02
   7 F= -.29630009E+03 E0= -.29625984E+03  d E =-.107335E-02
 BRION: g(F)=  0.677E-03 g(S)=  0.000E+00 retain N=  5 mean eig= 2.49
 eig:   5.034  5.034  0.595  0.890  0.890
 bond charge predicted
       N       E                     dE             d eps       ncg     rms          rms(c)
RMM:   1    -0.296293626586E+03    0.64704E-02   -0.23214E+00  1952   0.310E+00
RMM:   2    -0.296302233248E+03   -0.86067E-02   -0.12533E-01  1952   0.919E-01
RMM:   3    -0.300415457107E+03   -0.41132E+01   -0.61148E-02  1952   0.435E-01
RMM:   4    -0.296303243430E+03    0.41122E+01   -0.42176E+01  4556   0.154E+00
RMM:   5    -0.296302649040E+03    0.59439E-03   -0.11841E-02  3839   0.110E-01    0.251E-01
RMM:   6    -0.296305436544E+03   -0.27875E-02   -0.62794E-03  4231   0.123E-01    0.596E-01
RMM:   7    -0.296301857381E+03    0.35792E-02   -0.23358E-03  3900   0.753E-02    0.779E-02
RMM:   8    -0.296301954597E+03   -0.97216E-04   -0.36071E-04  3280   0.358E-02
   8 F= -.29630195E+03 E0= -.29626138E+03  d E =-.186904E-02
 BRION: g(F)=  0.454E-03 g(S)=  0.000E+00 retain N=  5 mean eig= 3.79
 eig:   7.656  7.656  1.321  1.321  1.009
 bond charge predicted
       N       E                     dE             d eps       ncg     rms          rms(c)
RMM:   1    -0.296298406680E+03    0.34507E-02   -0.14091E+00  1952   0.239E+00
RMM:   2    -0.296303295209E+03   -0.48885E-02   -0.75055E-02  1952   0.705E-01
RMM:   3    -0.297651670024E+03   -0.13484E+01   -0.42706E-02  1952   0.332E-01
RMM:   4    -0.296375121496E+03    0.12765E+01   -0.22970E+01  4525   0.100E+00
RMM:   5    -0.296303418747E+03    0.71703E-01   -0.61454E-01  3605   0.126E-01    0.251E-01
RMM:   6    -0.296306848723E+03   -0.34300E-02   -0.71323E-03  4137   0.123E-01    0.637E-01
RMM:   7    -0.296302695972E+03    0.41528E-02   -0.25501E-03  3907   0.783E-02    0.676E-02
RMM:   8    -0.296302831081E+03   -0.13511E-03   -0.30602E-04  3031   0.314E-02    0.505E-02
RMM:   9    -0.296302819318E+03    0.11762E-04   -0.78921E-05  2311   0.180E-02
   9 F= -.29630282E+03 E0= -.29626209E+03  d E =-.864722E-03
 BRION: g(F)=  0.194E-03 g(S)=  0.000E+00 retain N=  4 mean eig= 4.58
 eig:   7.974  7.974  1.185  1.185
 bond charge predicted
       N       E                     dE             d eps       ncg     rms          rms(c)
RMM:   1    -0.296302088806E+03    0.74227E-03   -0.32983E-01  1952   0.116E+00
RMM:   2    -0.296303218747E+03   -0.11299E-02   -0.17483E-02  1952   0.340E-01
RMM:   3    -0.298546578013E+03   -0.22434E+01   -0.10465E-02  1952   0.159E-01
RMM:   4    -0.296339550898E+03    0.22070E+01   -0.12784E+02  4200   0.104E+00
RMM:   5    -0.296303212989E+03    0.36338E-01   -0.36717E-01  2698   0.796E-02    0.687E-02
RMM:   6    -0.296303291243E+03   -0.78253E-04   -0.35316E-04  3032   0.331E-02
  10 F= -.29630329E+03 E0= -.29626234E+03  d E =-.471924E-03
 BRION: g(F)=  0.451E-03 g(S)=  0.000E+00 retain N=  4 mean eig= 2.41
 eig:   4.093  4.093  0.414  1.049
 bond charge predicted
       N       E                     dE             d eps       ncg     rms          rms(c)
RMM:   1    -0.296303116613E+03    0.96377E-04   -0.11153E-02  1951   0.191E-01
RMM:   2    -0.301383191115E+03   -0.50801E+01   -0.88736E-04  1896   0.577E-02
RMM:   3    -0.308255652992E+03   -0.68725E+01   -0.31107E+02  1786   0.140E+00
RMM:   4    -0.296307773858E+03    0.11948E+02   -0.34081E+02  3332   0.442E+00
RMM:   5    -0.296303016836E+03    0.47570E-02   -0.38543E-02  2363   0.108E-01    0.251E-02
RMM:   6    -0.296303120409E+03   -0.10357E-03   -0.12563E-03  2186   0.240E-02    0.400E-02
RMM:   7    -0.296303126635E+03   -0.62264E-05   -0.23168E-04  1831   0.151E-02
  11 F= -.29630313E+03 E0= -.29626227E+03  d E =0.164607E-03
 BRION: g(F)=  0.125E-03 g(S)=  0.000E+00 retain N=  2 mean eig= 1.44
 eig:   0.474  2.411
 bond charge predicted
       N       E                     dE             d eps       ncg     rms          rms(c)
RMM:   1    -0.296303146969E+03   -0.26560E-04   -0.27857E-02  1952   0.341E-01
RMM:   2    -0.296694207681E+03   -0.39106E+00   -0.20915E-03  1944   0.105E-01
RMM:   3    -0.298937080328E+03   -0.22429E+01   -0.92314E+01  1924   0.475E-01
RMM:   4    -0.296206866073E+03    0.27302E+01   -0.11997E+02  3622   0.308E+00
RMM:   5    -0.296060719361E+03    0.14615E+00   -0.64885E-01  2633   0.212E-01    0.570E-01
RMM:   6    -0.296063087451E+03   -0.23681E-02   -0.57388E-02  4516   0.315E-01    0.891E-01
RMM:   7    -0.296053660306E+03    0.94271E-02   -0.15033E-02  4180   0.178E-01    0.272E-01
RMM:   8    -0.296381857322E+03   -0.32820E+00   -0.46390E-03  3950   0.786E-02    0.694E-01
RMM:   9    -0.296294053986E+03    0.87803E-01   -0.12274E+00  4160   0.189E-01    0.253E-01
RMM:  10    -0.296303760533E+03   -0.97065E-02   -0.11080E-01  3880   0.527E-02    0.136E-01
RMM:  11    -0.296303481391E+03    0.27914E-03   -0.21909E-03  2247   0.202E-02    0.136E-01
RMM:  12    -0.296303499182E+03   -0.17791E-04   -0.13887E-03  2614   0.230E-02    0.119E-01
RMM:  13    -0.296303307386E+03    0.19180E-03   -0.21240E-04  2372   0.171E-02    0.724E-02
RMM:  14    -0.296303241218E+03    0.66167E-04   -0.16237E-04  2380   0.161E-02
  12 F= -.29630324E+03 E0= -.29626229E+03  d E =-.114583E-03
 BRION: g(F)=  0.106E-03 g(S)=  0.000E+00 retain N=  3 mean eig= 2.55
 eig:   6.731  0.090  0.821
 bond charge predicted
       N       E                     dE             d eps       ncg     rms          rms(c)
RMM:   1    -0.296302686810E+03    0.62058E-03   -0.21644E-01  1952   0.940E-01
RMM:   2    -0.296456332742E+03   -0.15365E+00   -0.11532E-02  1952   0.274E-01
RMM:   3    -0.296303900937E+03    0.15243E+00    0.19636E-01  1952   0.149E-01
RMM:   4    -0.296303503966E+03    0.39697E-03   -0.26111E-02  4049   0.279E-01
RMM:   5    -0.296303456516E+03    0.47450E-04   -0.36763E-04  2516   0.352E-02    0.518E-02
RMM:   6    -0.296303450170E+03    0.63457E-05   -0.23091E-04  2677   0.271E-02
  13 F= -.29630345E+03 E0= -.29626263E+03  d E =-.208952E-03
 BRION: g(F)=  0.250E-03 g(S)=  0.000E+00 retain N=  4 mean eig= 2.23
 eig:   6.733  1.033  1.033  0.105
 bond charge predicted
       N       E                     dE             d eps       ncg     rms          rms(c)
RMM:   1    -0.296303385953E+03    0.70563E-04   -0.60816E-02  1952   0.464E-01
RMM:   2    -0.297334503659E+03   -0.10311E+01   -0.34943E-03  1952   0.135E-01
RMM:   3    -0.303217720991E+03   -0.58832E+01    0.44325E-02  1925   0.958E-02
RMM:   4    -0.296327006242E+03    0.68907E+01   -0.22896E+02  3645   0.247E+00
RMM:   5    -0.296303524948E+03    0.23481E-01   -0.26021E-01  2503   0.841E-02    0.488E-02
RMM:   6    -0.296303536313E+03   -0.11365E-04   -0.46099E-04  2564   0.239E-02
  14 F= -.29630354E+03 E0= -.29626261E+03  d E =-.861431E-04
 BRION: g(F)=  0.205E-03 g(S)=  0.000E+00 retain N=  3 mean eig= 0.63
 eig:   0.744  0.744  0.397
 bond charge predicted
       N       E                     dE             d eps       ncg     rms          rms(c)
RMM:   1    -0.296302957292E+03    0.56766E-03   -0.11385E-01  1952   0.690E-01
RMM:   2    -0.297853851732E+03   -0.15509E+01   -0.62294E-03  1952   0.202E-01
RMM:   3    -0.301995111137E+03   -0.41413E+01   -0.46131E+01  1952   0.483E-01
RMM:   4    -0.296364628335E+03    0.56305E+01   -0.24795E+02  3891   0.216E+00
RMM:   5    -0.296303386664E+03    0.61242E-01   -0.88601E-01  2368   0.884E-02    0.193E-02
RMM:   6    -0.296303385045E+03    0.16191E-05   -0.88013E-05  2348   0.188E-02
  15 F= -.29630339E+03 E0= -.29626252E+03  d E =0.151268E-03
 BRION: g(F)=  0.634E-04 g(S)=  0.000E+00 retain N=  4 mean eig= 2.18
 eig:   7.212  0.547  0.547  0.397
 reached required accuracy - stopping structural energy minimisation
 writing wavefunctions
