 running on   32 total cores
 distrk:  each k-point on   32 cores,    1 groups
 distr:  one band on    8 cores,    4 groups
 using from now: INCAR     
 vasp.5.4.1 05Feb16 (build Dec 31 2016 05:41:53) complex                        
  
 POSCAR found type information on POSCAR  O  Sn
 POSCAR found :  2 types and      49 ions
 scaLAPACK will be used

 ----------------------------------------------------------------------------- 
|                                                                             |
|  ADVICE TO THIS USER RUNNING 'VASP/VAMP'   (HEAR YOUR MASTER'S VOICE ...):  |
|                                                                             |
|      You have a (more or less) 'large supercell' and for larger cells       |
|      it might be more efficient to use real space projection opertators     |
|      So try LREAL= Auto  in the INCAR   file.                               |
|      Mind: At the moment your POTCAR file does not contain real space       |
|       projectors, and has to be modified,  BUT if you                       |
|      want to do an extremely  accurate calculation you might also keep the  |
|      reciprocal projection scheme          (i.e. LREAL=.FALSE.)             |
|                                                                             |
 ----------------------------------------------------------------------------- 

 LDA part: xc-table for Pade appr. of Perdew
 POSCAR, INCAR and KPOINTS ok, starting setup
 WARNING: small aliasing (wrap around) errors must be expected
 FFT: planning ...
 WAVECAR not read
 entering main loop
       N       E                     dE             d eps       ncg     rms          rms(c)
RMM:   1     0.126940205722E+03    0.12694E+03   -0.24200E+05  2560   0.243E+03
RMM:   2     0.478454874746E+03    0.35151E+03   -0.47061E+04  2560   0.436E+02
RMM:   3    -0.145484880293E+03   -0.62394E+03   -0.13074E+04  2560   0.210E+02
RMM:   4    -0.282679133120E+03   -0.13719E+03   -0.54128E+03  6193   0.164E+02
RMM:   5    -0.362923580057E+03   -0.80244E+02   -0.74314E+02  6601   0.410E+01BRMIX: very serious problems
 the old and the new charge density differ
 old charge density:   430.00000 new  428.00004
    0.424E+01
RMM:   6    -0.321809220092E+03    0.41114E+02   -0.20093E+02  6118   0.248E+01    0.177E+01
RMM:   7    -0.323367323155E+03   -0.15581E+01   -0.38623E+01  6447   0.897E+00    0.988E+00
RMM:   8    -0.323585811250E+03   -0.21849E+00   -0.93362E+00  6115   0.633E+00    0.353E+00
RMM:   9    -0.323353121344E+03    0.23269E+00   -0.20809E+00  6133   0.262E+00    0.628E-01
RMM:  10    -0.323402250037E+03   -0.49129E-01   -0.57771E-01  6624   0.106E+00    0.738E-01
RMM:  11    -0.323389817127E+03    0.12433E-01   -0.12892E-01  6427   0.618E-01    0.138E-01
RMM:  12    -0.323391118489E+03   -0.13014E-02   -0.23313E-02  6149   0.173E-01    0.507E-02
RMM:  13    -0.323391404921E+03   -0.28643E-03   -0.64190E-03  5256   0.945E-02    0.426E-02
RMM:  14    -0.324600529242E+03   -0.12091E+01   -0.12092E+01  4010   0.414E-02    0.570E-02
WARNING in EDDRMM: call to ZHEGV failed, returncode =   6  3 47
RMM:  15    -0.323454761706E+03    0.11458E+01   -0.42368E-02  3567   0.261E-02    0.332E-02
RMM:  16    -0.323390449880E+03    0.64312E-01   -0.72788E-01  3447   0.726E-02    0.108E-02
RMM:  17    -0.323391363429E+03   -0.91355E-03   -0.13235E-01  3193   0.319E-02    0.520E-03
RMM:  18    -0.323391303259E+03    0.60170E-04   -0.25416E-02  3319   0.249E-02    0.511E-03
RMM:  19    -0.323391498443E+03   -0.19518E-03   -0.62277E-03  2791   0.243E-02    0.511E-03
RMM:  20    -0.323391467003E+03    0.31440E-04   -0.11512E-03  2547   0.241E-02    0.506E-03
RMM:  21    -0.323391481139E+03   -0.14136E-04   -0.40983E-04  2500   0.239E-02
   1 F= -.32339148E+03 E0= -.32338263E+03  d E =-.323391E+03
 BRION: g(F)=  0.840E+01 g(S)=  0.000E+00
 bond charge predicted
       N       E                     dE             d eps       ncg     rms          rms(c)
RMM:   1    -0.340488040263E+03   -0.17097E+02   -0.20776E+03  5907   0.846E+01    0.177E+01
RMM:   2    -0.335504683885E+03    0.49834E+01   -0.16479E+02  6096   0.272E+01    0.158E+01
RMM:   3    -0.329876189845E+03    0.56285E+01   -0.77783E+00  6850   0.603E+00    0.111E+01
RMM:   4    -0.327189145289E+03    0.26870E+01   -0.53382E+00  6116   0.382E+00    0.395E+00
RMM:   5    -0.326795564347E+03    0.39358E+00   -0.18465E+00  6065   0.202E+00    0.115E+00
RMM:   6    -0.326768162687E+03    0.27402E-01   -0.19528E-01  6219   0.754E-01    0.532E-01
RMM:   7    -0.326766244712E+03    0.19180E-02   -0.35209E-02  6395   0.312E-01    0.267E-01
RMM:   8    -0.326765738909E+03    0.50580E-03   -0.46500E-03  6559   0.130E-01    0.125E-01
RMM:   9    -0.326765728676E+03    0.10233E-04   -0.13762E-03  5043   0.660E-02    0.335E-02
RMM:  10    -0.326765751026E+03   -0.22350E-04   -0.17178E-04  3444   0.284E-02
   2 F= -.32676575E+03 E0= -.32674574E+03  d E =-.337427E+01
 BRION: g(F)=  0.853E+01 g(S)=  0.000E+00 retain N=  1 mean eig= 0.50
 eig:   0.499
 bond charge predicted
       N       E                     dE             d eps       ncg     rms          rms(c)
RMM:   1    -0.330250738175E+03   -0.34850E+01   -0.60155E+02  6190   0.529E+01    0.819E+00
RMM:   2    -0.328439271813E+03    0.18115E+01   -0.21947E+01  6097   0.110E+01    0.223E+00
RMM:   3    -0.328583212644E+03   -0.14394E+00   -0.33672E+00  6787   0.345E+00    0.306E+00
RMM:   4    -0.328565960290E+03    0.17252E-01   -0.12789E-01  6263   0.834E-01    0.217E+00
RMM:   5    -0.328525421011E+03    0.40539E-01   -0.12394E-01  6126   0.687E-01    0.661E-01
RMM:   6    -0.328523484769E+03    0.19362E-02   -0.24569E-02  6423   0.274E-01    0.665E-01
RMM:   7    -0.328523223000E+03    0.26177E-03   -0.31713E-03  5955   0.133E-01    0.954E-02
RMM:   8    -0.328523265634E+03   -0.42634E-04   -0.81217E-04  5271   0.663E-02
   3 F= -.32852327E+03 E0= -.32850118E+03  d E =-.175751E+01
 BRION: g(F)=  0.188E+01 g(S)=  0.000E+00 retain N=  2 mean eig= 1.33
 eig:   0.203  2.448
 bond charge predicted
       N       E                     dE             d eps       ncg     rms          rms(c)
RMM:   1    -0.349203006738E+03   -0.20680E+02   -0.59782E+02  5428   0.408E+01    0.433E+00
RMM:   2    -0.329506043348E+03    0.19697E+02   -0.35065E+01  6095   0.183E+01    0.221E+00
RMM:   3    -0.329393650292E+03    0.11239E+00   -0.90230E-01  6923   0.232E+00    0.150E+00
RMM:   4    -0.329374692458E+03    0.18958E-01   -0.58731E-02  6084   0.524E-01    0.830E-01
RMM:   5    -0.329369700566E+03    0.49919E-02   -0.29656E-02  6048   0.350E-01    0.204E-01
RMM:   6    -0.329369632920E+03    0.67646E-04   -0.26776E-03  6275   0.114E-01    0.951E-02
RMM:   7    -0.329369651443E+03   -0.18523E-04   -0.29868E-04  4229   0.392E-02
   4 F= -.32936965E+03 E0= -.32935119E+03  d E =-.846386E+00
 BRION: g(F)=  0.459E+00 g(S)=  0.000E+00 retain N=  3 mean eig= 1.66
 eig:   0.670  2.155  2.155
 bond charge predicted
       N       E                     dE             d eps       ncg     rms          rms(c)
RMM:   1    -0.334576259638E+03   -0.52066E+01   -0.13304E+02  5147   0.189E+01    0.176E+00
RMM:   2    -0.329658825677E+03    0.49174E+01   -0.83975E+00  6098   0.935E+00    0.881E-01
RMM:   3    -0.329642674873E+03    0.16151E-01   -0.17243E-01  6899   0.104E+00    0.586E-01
RMM:   4    -0.329640708437E+03    0.19664E-02   -0.81827E-03  6088   0.231E-01    0.351E-01
RMM:   5    -0.329640203921E+03    0.50452E-03   -0.39870E-03  6022   0.169E-01    0.690E-02
RMM:   6    -0.329640229270E+03   -0.25350E-04   -0.40670E-04  4361   0.484E-02
   5 F= -.32964023E+03 E0= -.32962271E+03  d E =-.270578E+00
 BRION: g(F)=  0.194E+00 g(S)=  0.000E+00 retain N=  4 mean eig= 2.25
 eig:   3.867  3.867  0.634  0.634
 bond charge predicted
       N       E                     dE             d eps       ncg     rms          rms(c)
RMM:   1    -0.333224394541E+03   -0.35842E+01   -0.12148E+02  5120   0.197E+01    0.177E+00
RMM:   2    -0.329841631499E+03    0.33828E+01   -0.67247E+00  6093   0.854E+00    0.762E-01
RMM:   3    -0.329837583559E+03    0.40479E-02   -0.24879E-01  6907   0.118E+00    0.681E-01
RMM:   4    -0.329837363974E+03    0.21958E-03   -0.69234E-03  6168   0.207E-01    0.501E-01
RMM:   5    -0.329836827536E+03    0.53644E-03   -0.45245E-03  6064   0.152E-01    0.708E-02
RMM:   6    -0.329836857303E+03   -0.29767E-04   -0.52306E-04  4946   0.537E-02
   6 F= -.32983686E+03 E0= -.32982025E+03  d E =-.196628E+00
 BRION: g(F)=  0.133E+00 g(S)=  0.000E+00 retain N=  5 mean eig= 2.03
 eig:   4.052  4.052  0.727  0.727  0.604
 bond charge predicted
       N       E                     dE             d eps       ncg     rms          rms(c)
RMM:   1    -0.337452706116E+03   -0.76159E+01   -0.23850E+02  5121   0.265E+01    0.251E+00
RMM:   2    -0.330070396256E+03    0.73823E+01   -0.13461E+01  6093   0.117E+01    0.126E+00
RMM:   3    -0.330038200708E+03    0.32196E-01   -0.39224E-01  6905   0.152E+00    0.873E-01
RMM:   4    -0.330035281965E+03    0.29187E-02   -0.15144E-02  6105   0.289E-01    0.576E-01
RMM:   5    -0.330034308884E+03    0.97308E-03   -0.93523E-03  6091   0.205E-01    0.111E-01
RMM:   6    -0.330034400055E+03   -0.91171E-04   -0.96142E-04  5296   0.685E-02
   7 F= -.33003440E+03 E0= -.33001969E+03  d E =-.197543E+00
 BRION: g(F)=  0.672E-01 g(S)=  0.000E+00 retain N=  5 mean eig= 1.42
 eig:   2.451  2.451  0.798  0.798  0.603
 bond charge predicted
       N       E                     dE             d eps       ncg     rms          rms(c)
RMM:   1    -0.331736397289E+03   -0.17021E+01   -0.55765E+01  5120   0.129E+01    0.101E+00
RMM:   2    -0.330113754544E+03    0.16226E+01   -0.28720E+00  6093   0.541E+00    0.476E-01
RMM:   3    -0.330108415962E+03    0.53386E-02   -0.73643E-02  6875   0.675E-01    0.365E-01
RMM:   4    -0.330108037172E+03    0.37879E-03   -0.29315E-03  6015   0.130E-01    0.251E-01
RMM:   5    -0.330107803716E+03    0.23346E-03   -0.17708E-03  5720   0.105E-01    0.336E-02
RMM:   6    -0.330107811111E+03   -0.73950E-05   -0.15954E-04  3207   0.313E-02
   8 F= -.33010781E+03 E0= -.33009400E+03  d E =-.734111E-01
 BRION: g(F)=  0.397E-01 g(S)=  0.000E+00 retain N=  6 mean eig= 3.16
 eig:   7.695  7.695  1.108  1.108  0.679  0.679
 bond charge predicted
       N       E                     dE             d eps       ncg     rms          rms(c)
RMM:   1    -0.332048545940E+03   -0.19407E+01   -0.70944E+01  5120   0.147E+01    0.110E+00
RMM:   2    -0.330188871894E+03    0.18597E+01   -0.33705E+00  6093   0.580E+00    0.541E-01
RMM:   3    -0.330181532307E+03    0.73396E-02   -0.93127E-02  6879   0.759E-01    0.409E-01
RMM:   4    -0.330181106464E+03    0.42584E-03   -0.35707E-03  6086   0.135E-01    0.284E-01
RMM:   5    -0.330180827558E+03    0.27891E-03   -0.22169E-03  5759   0.106E-01    0.376E-02
RMM:   6    -0.330180835844E+03   -0.82863E-05   -0.19371E-04  3342   0.327E-02
   9 F= -.33018084E+03 E0= -.33016786E+03  d E =-.730247E-01
 BRION: g(F)=  0.280E-01 g(S)=  0.000E+00 retain N=  5 mean eig= 3.47
 eig:   6.792  6.792  1.385  1.385  0.974
 bond charge predicted
       N       E                     dE             d eps       ncg     rms          rms(c)
RMM:   1    -0.333355472120E+03   -0.31746E+01   -0.11381E+02  5120   0.185E+01    0.140E+00
RMM:   2    -0.330271174070E+03    0.30843E+01   -0.55411E+00  6093   0.740E+00    0.766E-01
RMM:   3    -0.330255551784E+03    0.15622E-01   -0.14327E-01  6874   0.953E-01    0.537E-01
RMM:   4    -0.330254089288E+03    0.14625E-02   -0.68668E-03  6117   0.189E-01    0.349E-01
RMM:   5    -0.330253544769E+03    0.54452E-03   -0.49588E-03  5942   0.150E-01    0.556E-02
RMM:   6    -0.330253544433E+03    0.33602E-06   -0.31789E-04  4027   0.420E-02
  10 F= -.33025354E+03 E0= -.33024125E+03  d E =-.727086E-01
 BRION: g(F)=  0.163E-01 g(S)=  0.000E+00 retain N=  3 mean eig= 4.36
 eig:   1.227  5.926  5.926
 bond charge predicted
       N       E                     dE             d eps       ncg     rms          rms(c)
RMM:   1    -0.333759415723E+03   -0.35059E+01   -0.12865E+02  5120   0.198E+01    0.150E+00
RMM:   2    -0.330321792600E+03    0.34376E+01   -0.62559E+00  6094   0.789E+00    0.822E-01
RMM:   3    -0.330304051635E+03    0.17741E-01   -0.16705E-01  6886   0.103E+00    0.585E-01
RMM:   4    -0.330302380159E+03    0.16715E-02   -0.77092E-03  6109   0.202E-01    0.383E-01
RMM:   5    -0.330301766885E+03    0.61327E-03   -0.60608E-03  5966   0.167E-01    0.584E-02
RMM:   6    -0.330301761344E+03    0.55411E-05   -0.36883E-04  4257   0.454E-02
  11 F= -.33030176E+03 E0= -.33029006E+03  d E =-.482169E-01
 BRION: g(F)=  0.915E-02 g(S)=  0.000E+00 retain N=  2 mean eig= 4.38
 eig:   4.377  4.377
 bond charge predicted
       N       E                     dE             d eps       ncg     rms          rms(c)
RMM:   1    -0.330534670740E+03   -0.23290E+00   -0.79943E+00  5122   0.487E+00    0.336E-01
RMM:   2    -0.330313132578E+03    0.22154E+00   -0.38822E-01  6094   0.199E+00    0.144E-01
RMM:   3    -0.330312279763E+03    0.85281E-03   -0.10076E-02  6909   0.255E-01    0.122E-01
RMM:   4    -0.330312267438E+03    0.12325E-04   -0.46023E-04  3792   0.419E-02
  12 F= -.33031227E+03 E0= -.33030060E+03  d E =-.105061E-01
 BRION: g(F)=  0.697E-02 g(S)=  0.000E+00 retain N=  3 mean eig= 3.92
 eig:   5.395  5.395  0.960
 bond charge predicted
       N       E                     dE             d eps       ncg     rms          rms(c)
RMM:   1    -0.330682852674E+03   -0.37057E+00   -0.14389E+01  5120   0.671E+00    0.467E-01
RMM:   2    -0.330323243997E+03    0.35961E+00   -0.65960E-01  6094   0.258E+00    0.203E-01
RMM:   3    -0.330321946982E+03    0.12970E-02   -0.18988E-02  6879   0.350E-01    0.173E-01
WARNING in EDDRMM: call to ZHEGV failed, returncode =   6  3 52
RMM:   4    -0.330321939356E+03    0.76262E-05   -0.80630E-04  4376   0.598E-02
  13 F= -.33032194E+03 E0= -.33031034E+03  d E =-.967192E-02
 BRION: g(F)=  0.488E-02 g(S)=  0.000E+00 retain N=  3 mean eig= 4.24
 eig:   5.714  5.714  1.280
 bond charge predicted
       N       E                     dE             d eps       ncg     rms          rms(c)
RMM:   1    -0.330690730135E+03   -0.36878E+00   -0.15049E+01  5120   0.688E+00    0.485E-01
RMM:   2    -0.330332664520E+03    0.35807E+00   -0.65470E-01  6094   0.258E+00    0.208E-01
RMM:   3    -0.330331529465E+03    0.11351E-02   -0.19262E-02  6923   0.351E-01    0.168E-01
RMM:   4    -0.330331533686E+03   -0.42213E-05   -0.83388E-04  4337   0.569E-02
  14 F= -.33033153E+03 E0= -.33031998E+03  d E =-.959433E-02
 BRION: g(F)=  0.297E-02 g(S)=  0.000E+00 retain N=  3 mean eig= 3.54
 eig:   4.717  4.717  1.176
 bond charge predicted
       N       E                     dE             d eps       ncg     rms          rms(c)
RMM:   1    -0.330624727977E+03   -0.29320E+00   -0.11759E+01  5120   0.607E+00    0.433E-01
RMM:   2    -0.330338125873E+03    0.28660E+00   -0.52239E-01  6094   0.230E+00    0.183E-01
RMM:   3    -0.330337252053E+03    0.87382E-03   -0.15088E-02  6905   0.311E-01    0.147E-01
RMM:   4    -0.330337267231E+03   -0.15178E-04   -0.68379E-04  4091   0.500E-02
  15 F= -.33033727E+03 E0= -.33032573E+03  d E =-.573354E-02
 BRION: g(F)=  0.225E-02 g(S)=  0.000E+00 retain N=  3 mean eig= 3.28
 eig:   1.419  4.210  4.210
 reached required accuracy - stopping structural energy minimisation
 writing wavefunctions
