 vasp.5.4.4.18Apr17-6-g9f103f2a35 (build May 17 2017 21:50:23) complex          
  
 executed on             LinuxIFC date 2017.11.05  18:18:28
 running on  256 total cores
 distrk:  each k-point on  256 cores,    1 groups
 distr:  one band on NCORES_PER_BAND=  64 cores,    4 groups


--------------------------------------------------------------------------------------------------------


 INCAR:
 POTCAR:    PAW_PBE O 08Apr2002                   
 POTCAR:    PAW_PBE Sn_d 06Sep2000                
 POTCAR:    PAW_PBE F 08Apr2002                   

 ----------------------------------------------------------------------------- 
|                                                                             |
|           W    W    AA    RRRRR   N    N  II  N    N   GGGG   !!!           |
|           W    W   A  A   R    R  NN   N  II  NN   N  G    G  !!!           |
|           W    W  A    A  R    R  N N  N  II  N N  N  G       !!!           |
|           W WW W  AAAAAA  RRRRR   N  N N  II  N  N N  G  GGG   !            |
|           WW  WW  A    A  R   R   N   NN  II  N   NN  G    G                |
|           W    W  A    A  R    R  N    N  II  N    N   GGGG   !!!           |
|                                                                             |
|      For optimal performance we recommend to set                            |
|        NCORE= 4 - approx SQRT( number of cores)                             |
|      NCORE specifies how many cores store one orbital (NPAR=cpu/NCORE).     |
|      This setting can  greatly improve the performance of VASP for DFT.     |
|      The default,   NCORE=1            might be grossly inefficient         |
|      on modern multi-core architectures or massively parallel machines.     |
|      Do your own testing !!!!                                               |
|      Unfortunately you need to use the default for GW and RPA calculations. |
|      (for HF NCORE is supported but not extensively tested yet)             |
|                                                                             |
 ----------------------------------------------------------------------------- 

 POTCAR:    PAW_PBE O 08Apr2002                   
   VRHFIN =O: s2p4                                                              
   LEXCH  = PE                                                                  
   EATOM  =   432.3788 eV,   31.7789 Ry                                         
                                                                                
   TITEL  = PAW_PBE O 08Apr2002                                                 
   LULTRA =        F    use ultrasoft PP ?                                      
   IUNSCR =        1    unscreen: 0-lin 1-nonlin 2-no                           
   RPACOR =    1.200    partial core radius                                     
   POMASS =   16.000; ZVAL   =    6.000    mass and valenz                      
   RCORE  =    1.520    outmost cutoff radius                                   
   RWIGS  =    1.550; RWIGS  =    0.820    wigner-seitz radius (au A)           
   ENMAX  =  400.000; ENMIN  =  300.000 eV                                      
   ICORE  =        2    local potential                                         
   LCOR   =        T    correct aug charges                                     
   LPAW   =        T    paw PP                                                  
   EAUG   =  605.392                                                            
   DEXC   =    0.000                                                            
   RMAX   =    1.553    core radius for proj-oper                               
   RAUG   =    1.300    factor for augmentation sphere                          
   RDEP   =    1.550    radius for radial grids                                 
   RDEPT  =    1.329    core radius for aug-charge                              
                                                                                
   Atomic configuration                                                         
    4 entries                                                                   
     n  l   j            E        occ.                                          
     1  0  0.50      -514.6923   2.0000                                         
     2  0  0.50       -23.9615   2.0000                                         
     2  1  0.50        -9.0305   4.0000                                         
     3  2  1.50        -9.5241   0.0000                                         
   Description                                                                  
     l       E           TYP  RCUT    TYP  RCUT                                 
     0    -23.9615318     23  1.200                                             
     0     -9.5240782     23  1.200                                             
     1     -9.0304911     23  1.520                                             
     1      8.1634956     23  1.520                                             
     2     -9.5240782      7  1.500                                             
  local pseudopotential read in
  partial core-charges read in
  partial kinetic energy density read in
  kinetic energy density of atom read in
  atomic valenz-charges read in
  non local Contribution for L=           0  read in
    real space projection operators read in
  non local Contribution for L=           0  read in
    real space projection operators read in
  non local Contribution for L=           1  read in
    real space projection operators read in
  non local Contribution for L=           1  read in
    real space projection operators read in
    PAW grid and wavefunctions read in
 
   number of l-projection  operators is LMAX  =           4
   number of lm-projection operators is LMMAX =           8
 
 POTCAR:    PAW_PBE Sn_d 06Sep2000                
   VRHFIN =Sn: s2p2                                                             
   LEXCH  = PE                                                                  
   EATOM  =  1893.1092 eV,  139.1396 Ry                                         
                                                                                
   TITEL  = PAW_PBE Sn_d 06Sep2000                                              
   LULTRA =        F    use ultrasoft PP ?                                      
   IUNSCR =        1    unscreen: 0-lin 1-nonlin 2-no                           
   RPACOR =    2.300    partial core radius                                     
   POMASS =  118.710; ZVAL   =   14.000    mass and valenz                      
   RCORE  =    2.500    outmost cutoff radius                                   
   RWIGS  =    2.960; RWIGS  =    1.566    wigner-seitz radius (au A)           
   ENMAX  =  241.083; ENMIN  =  180.812 eV                                      
   ICORE  =        3    local potential                                         
   LCOR   =        T    correct aug charges                                     
   LPAW   =        T    paw PP                                                  
   EAUG   =  439.825                                                            
   DEXC   =    0.000                                                            
   RMAX   =    2.560    core radius for proj-oper                               
   RAUG   =    1.300    factor for augmentation sphere                          
   RDEP   =    2.659    radius for radial grids                                 
   RDEPT  =    2.046    core radius for aug-charge                              
                                                                                
   Atomic configuration                                                         
   12 entries                                                                   
     n  l   j            E        occ.                                          
     1  0  0.50    -29007.2859   2.0000                                         
     2  0  0.50     -4378.8056   2.0000                                         
     2  1  1.50     -3930.4293   6.0000                                         
     3  0  0.50      -845.0264   2.0000                                         
     3  1  1.50      -698.5725   6.0000                                         
     3  2  2.50      -473.2839  10.0000                                         
     4  0  0.50      -133.9036   2.0000                                         
     4  1  1.50       -89.6752   6.0000                                         
     4  2  2.50       -25.8375  10.0000                                         
     5  0  0.50       -10.5484   2.0000                                         
     5  1  0.50        -3.6940   2.0000                                         
     4  3  2.50        -2.7416   0.0000                                         
   Description                                                                  
     l       E           TYP  RCUT    TYP  RCUT                                 
     2    -25.8374624     23  2.500                                             
     2     -5.4423304     23  2.500                                             
     0    -10.5483727     23  2.500                                             
     0     13.6058260     23  2.500                                             
     1     -3.6939829     23  2.500                                             
     1      1.9821976     23  2.500                                             
     3     -1.3605826      7  2.500                                             
  local pseudopotential read in
  partial core-charges read in
  partial kinetic energy density read in
  atomic valenz-charges read in
  non local Contribution for L=           2  read in
    real space projection operators read in
  non local Contribution for L=           2  read in
    real space projection operators read in
  non local Contribution for L=           0  read in
    real space projection operators read in
  non local Contribution for L=           0  read in
    real space projection operators read in
  non local Contribution for L=           1  read in
    real space projection operators read in
  non local Contribution for L=           1  read in
    real space projection operators read in
    PAW grid and wavefunctions read in
 
   number of l-projection  operators is LMAX  =           6
   number of lm-projection operators is LMMAX =          18
 
 POTCAR:    PAW_PBE F 08Apr2002                   
   VRHFIN =F: s2p5                                                              
   LEXCH  = PE                                                                  
   EATOM  =   659.6475 eV,   48.4827 Ry                                         
                                                                                
   TITEL  = PAW_PBE F 08Apr2002                                                 
   LULTRA =        F    use ultrasoft PP ?                                      
   IUNSCR =        1    unscreen: 0-lin 1-nonlin 2-no                           
   RPACOR =    1.200    partial core radius                                     
   POMASS =   18.998; ZVAL   =    7.000    mass and valenz                      
   RCORE  =    1.520    outmost cutoff radius                                   
   RWIGS  =    1.500; RWIGS  =    0.794    wigner-seitz radius (au A)           
   ENMAX  =  400.000; ENMIN  =  300.000 eV                                      
   ICORE  =        2    local potential                                         
   LCOR   =        T    correct aug charges                                     
   LPAW   =        T    paw PP                                                  
   EAUG   =  613.614                                                            
   RMAX   =    1.555    core radius for proj-oper                               
   RAUG   =    1.300    factor for augmentation sphere                          
   RDEP   =    1.539    radius for radial grids                                 
   RDEPT  =    1.299    core radius for aug-charge                              
                                                                                
   Atomic configuration                                                         
    4 entries                                                                   
     n  l   j            E        occ.                                          
     1  0  0.50      -663.3661   2.0000                                         
     2  0  0.50       -29.8995   2.0000                                         
     2  1  0.50       -11.1114   5.0000                                         
     3  2  1.50       -10.8847   0.0000                                         
   Description                                                                  
     l       E           TYP  RCUT    TYP  RCUT                                 
     0    -29.8995018     23  1.200                                             
     0     -9.5240782     23  1.200                                             
     1    -11.1113914     23  1.520                                             
     1      1.3605826     23  1.520                                             
     2    -10.8846608      7  1.500                                             
  local pseudopotential read in
  partial core-charges read in
  partial kinetic energy density read in
  atomic valenz-charges read in
  non local Contribution for L=           0  read in
    real space projection operators read in
  non local Contribution for L=           0  read in
    real space projection operators read in
  non local Contribution for L=           1  read in
    real space projection operators read in
  non local Contribution for L=           1  read in
    real space projection operators read in
    PAW grid and wavefunctions read in
 
   number of l-projection  operators is LMAX  =           4
   number of lm-projection operators is LMMAX =           8
 

 ----------------------------------------------------------------------------- 
|                                                                             |
|  ADVICE TO THIS USER RUNNING 'VASP/VAMP'   (HEAR YOUR MASTER'S VOICE ...):  |
|                                                                             |
|      You have a (more or less) 'large supercell' and for larger cells       |
|      it might be more efficient to use real space projection opertators     |
|      So try LREAL= Auto  in the INCAR   file.                               |
|      Mind:          For very  accurate calculation you might also keep the  |
|      reciprocal projection scheme          (i.e. LREAL=.FALSE.)             |
|                                                                             |
 ----------------------------------------------------------------------------- 

  PAW_PBE O 08Apr2002                   :
 energy of atom  1       EATOM= -432.3788
 kinetic energy error for atom=    0.0258 (will be added to EATOM!!)
  PAW_PBE Sn_d 06Sep2000                :
 energy of atom  2       EATOM=-1893.1092
 kinetic energy error for atom=    0.0038 (will be added to EATOM!!)
  PAW_PBE F 08Apr2002                   :
 energy of atom  3       EATOM= -659.6475
 kinetic energy error for atom=    0.0418 (will be added to EATOM!!)
 
 
 POSCAR: SnO2                                    
  positions in direct lattice
  velocities in cartesian coordinates
 exchange correlation table for  LEXCH =        8
   RHO(1)=    0.500       N(1)  =     2000
   RHO(2)=  100.500       N(2)  =     4000

 VTST: version 3.1, (03/28/14)

 CHAIN: initializing optimizer
 
 OPT: Using VASP QUASI-newton optimizer
 CHAIN: Read ICHAIN            0
 
 POSCAR: SnO2                                    
  positions in direct lattice
  velocities in cartesian coordinates
 


--------------------------------------------------------------------------------------------------------


 ion  position               nearest neighbor table
   1  0.097  0.903  0.750-  39 2.04  35 2.04  47 2.04
   2  0.403  0.597  0.750-  39 2.04  32 2.04  46 2.04
   3  0.903  0.597  0.750-  33 2.04  37 2.04  42 2.04
   4  0.653  0.153  0.000-  45 2.04  44 2.04  40 2.04
   5  0.847  0.347  0.000-  42 2.04  40 2.04  44 2.04
   6  0.903  0.097  0.250-  44 2.04  35 2.04  47 2.04
   7  0.597  0.403  0.250-  44 2.04  32 2.04  46 2.04
   8  0.653  0.153  0.500-  41 2.04  40 2.04  44 2.04
   9  0.347  0.847  0.500-  41 2.04  39 2.04  43 2.04
  10  0.847  0.347  0.500-  37 2.04  40 2.04  44 2.04
  11  0.597  0.403  0.750-  40 2.04  32 2.04  46 2.04
  12  0.653  0.653  0.000-  46 2.04  36 2.04  33 2.04
  13  0.847  0.847  0.000-  47 2.04  36 2.04  33 2.04
  14  0.903  0.597  0.250-  36 2.04  37 2.04  42 2.04
  15  0.597  0.903  0.250-  36 2.04  41 2.04  45 2.04
  16  0.653  0.653  0.500-  32 2.04  33 2.04  36 2.04
  17  0.847  0.847  0.500-  35 2.04  33 2.04  36 2.04
  18  0.903  0.097  0.750-  40 2.04  35 2.04  47 2.04
  19  0.153  0.653  0.500-  37 2.04  39 2.04  43 2.04
  20  0.597  0.903  0.750-  33 2.04  41 2.04  45 2.04
  21  0.347  0.347  0.500-  32 2.04  34 2.04  38 2.04
  22  0.097  0.903  0.250-  43 2.04  35 2.04  47 2.04
  23  0.403  0.597  0.250-  43 2.04  32 2.04  46 2.04
  24  0.347  0.847  0.000-  45 2.04  43 2.04  39 2.04
  25  0.153  0.153  0.500-  35 2.04  34 2.04  38 2.04
  26  0.153  0.653  0.000-  42 2.04  39 2.04  43 2.04
  27  0.097  0.403  0.250-  34 2.04  37 2.04  42 2.04
  28  0.403  0.097  0.750-  38 2.04  41 2.04  45 2.04
  29  0.097  0.403  0.750-  38 2.04  37 2.04  42 2.04
  30  0.347  0.347  0.000-  46 2.04  38 2.04  34 2.04
  31  0.403  0.097  0.250-  34 2.04  41 2.04  45 2.04
  32  0.500  0.500  0.500-  16 2.04  21 2.04  11 2.04   2 2.04   7 2.04  23 2.04  46 3.15  46 3.15
                            36 3.69  38 3.69  39 3.69  40 3.69  43 3.69  44 3.69  33 3.69  34 3.69
  33  0.750  0.750  0.750-   3 2.04  20 2.04  13 2.04  16 2.04  17 2.04  12 2.04  36 3.15  36 3.15
                            32 3.69  37 3.69  41 3.69  42 3.69  45 3.69  46 3.69  47 3.69  35 3.69
  34  0.250  0.250  0.250-  27 2.04  31 2.04  21 2.04  30 2.04  25 2.04  48 2.04  38 3.15  38 3.15
                            32 3.69  41 3.69  42 3.69  45 3.69  46 3.69  47 3.69  35 3.69  37 3.69
  35  0.000  0.000  0.500-  17 2.04  25 2.04   1 2.04  18 2.04  22 2.04   6 2.04  47 3.15  47 3.15
                            36 3.69  38 3.69  39 3.69  40 3.69  43 3.69  44 3.69  33 3.69  34 3.69
  36  0.750  0.750  0.250-  14 2.04  15 2.04  12 2.04  13 2.04  16 2.04  17 2.04  33 3.15  33 3.15
                            35 3.69  37 3.69  41 3.69  42 3.69  45 3.69  46 3.69  47 3.69  32 3.69
  37  0.000  0.500  0.500-  10 2.04  19 2.04  14 2.04   3 2.04  27 2.04  29 2.04  42 3.15  42 3.15
                            36 3.69  38 3.69  39 3.69  40 3.69  33 3.69  43 3.69  44 3.69  34 3.69
  38  0.250  0.250  0.750-  28 2.04  29 2.04  21 2.04  25 2.04  30 2.04  48 2.04  34 3.15  34 3.15
                            37 3.69  41 3.69  42 3.69  45 3.69  46 3.69  47 3.69  32 3.69  35 3.69
  39  0.250  0.750  0.750-   1 2.04   2 2.04   9 2.04  19 2.04  24 2.04  26 2.04  43 3.15  43 3.15
                            37 3.69  41 3.69  42 3.69  32 3.69  45 3.69  46 3.69  47 3.69  35 3.69
  40  0.750  0.250  0.750-  11 2.04  18 2.04   8 2.04  10 2.04   4 2.04   5 2.04  44 3.15  44 3.15
                            37 3.69  41 3.69  42 3.69  32 3.69  45 3.69  46 3.69  47 3.69  35 3.69
  41  0.500  0.000  0.500-   8 2.04   9 2.04  15 2.04  20 2.04  28 2.04  31 2.04  45 3.15  45 3.15
                            36 3.69  38 3.69  39 3.69  40 3.69  43 3.69  44 3.69  33 3.69  34 3.69
  42  0.000  0.500  0.000-   5 2.04  26 2.04  14 2.04   3 2.04  27 2.04  29 2.04  37 3.15  37 3.15
                            36 3.69  33 3.69  38 3.69  39 3.69  40 3.69  43 3.69  44 3.69  34 3.69
  43  0.250  0.750  0.250-  22 2.04  23 2.04   9 2.04  19 2.04  24 2.04  26 2.04  39 3.15  39 3.15
                            37 3.69  32 3.69  41 3.69  42 3.69  45 3.69  46 3.69  47 3.69  35 3.69
  44  0.750  0.250  0.250-   6 2.04   7 2.04   4 2.04   5 2.04   8 2.04  10 2.04  40 3.15  40 3.15
                            37 3.69  32 3.69  41 3.69  42 3.69  45 3.69  46 3.69  47 3.69  35 3.69
  45  0.500  0.000  0.000-   4 2.04  24 2.04  20 2.04  15 2.04  28 2.04  31 2.04  41 3.15  41 3.15
                            36 3.69  38 3.69  39 3.69  40 3.69  33 3.69  43 3.69  44 3.69  34 3.69
  46  0.500  0.500  0.000-  12 2.04  30 2.04  11 2.04   2 2.04  23 2.04   7 2.04  32 3.15  32 3.15
                            34 3.69  36 3.69  38 3.69  39 3.69  40 3.69  43 3.69  44 3.69  33 3.69
  47  0.000  0.000  0.000-  13 2.04   6 2.04   1 2.04  18 2.04  22 2.04  48 2.04  35 3.15  35 3.15
                            36 3.69  38 3.69  39 3.69  40 3.69  43 3.69  44 3.69  34 3.69  33 3.69
  48  0.143  0.163  0.000-  47 2.04  38 2.04  34 2.04
 
  LATTYP: Found a simple tetragonal cell.
 ALAT       =     9.4320271667
 C/A-ratio  =     0.6685526591
  
  Lattice vectors:
  
 A1 = (   9.4320271667,   0.0000000000,   0.0000000000)
 A2 = (   0.0000000000,   9.4320271667,   0.0000000000)
 A3 = (   0.0000000000,   0.0000000000,   6.3058068432)


Analysis of symmetry for initial positions (statically):
=====================================================================
 Subroutine PRICEL returns:
 Original cell was already a primitive cell.
 

 Routine SETGRP: Setting up the symmetry group for a 
 simple tetragonal supercell.


 Subroutine GETGRP returns: Found  2 space group operations
 (whereof  2 operations were pure point group operations)
 out of a pool of 16 trial point group operations.


The static configuration has the point symmetry C_1h.


Analysis of symmetry for dynamics (positions and initial velocities):
=====================================================================
 Subroutine PRICEL returns:
 Original cell was already a primitive cell.
 

 Routine SETGRP: Setting up the symmetry group for a 
 simple tetragonal supercell.


 Subroutine GETGRP returns: Found  2 space group operations
 (whereof  2 operations were pure point group operations)
 out of a pool of 16 trial point group operations.


The dynamic configuration has the point symmetry C_1h.


Analysis of constrained symmetry for selective dynamics:
=====================================================================
 Subroutine PRICEL returns:
 Original cell was already a primitive cell.
 

 Routine SETGRP: Setting up the symmetry group for a 
 simple tetragonal supercell.


 Subroutine GETGRP returns: Found  2 space group operations
 (whereof  2 operations were pure point group operations)
 out of a pool of 16 trial point group operations.


The constrained configuration has the point symmetry C_1h.


 Subroutine INISYM returns: Found  2 space group operations
 (whereof  2 operations are pure point group operations),
 and found     1 'primitive' translations

 
 
 KPOINTS: Automatic mesh                          

Automatic generation of k-mesh.
Space group operators:
 irot       det(A)        alpha          n_x          n_y          n_z        tau_x        tau_y        tau_z
    1     1.000000     0.000000     1.000000     0.000000     0.000000     0.000000     0.000000     0.000000
    2    -1.000000   180.000000     0.000000     0.000000     1.000000     0.000000     0.000000     0.000000
 
 Subroutine IBZKPT returns following result:
 ===========================================
 
 Found     10 irreducible k-points:
 
 Following reciprocal coordinates:
            Coordinates               Weight
  0.000000  0.000000  0.125000      2.000000
  0.333333  0.000000  0.125000      4.000000
  0.000000  0.333333  0.125000      4.000000
  0.333333  0.333333  0.125000      4.000000
 -0.333333  0.333333  0.125000      4.000000
  0.000000  0.000000  0.375000      2.000000
  0.333333  0.000000  0.375000      4.000000
  0.000000  0.333333  0.375000      4.000000
  0.333333  0.333333  0.375000      4.000000
 -0.333333  0.333333  0.375000      4.000000
 
 Following cartesian coordinates:
            Coordinates               Weight
  0.000000  0.000000  0.019823      2.000000
  0.035341  0.000000  0.019823      4.000000
  0.000000  0.035341  0.019823      4.000000
  0.035341  0.035341  0.019823      4.000000
 -0.035341  0.035341  0.019823      4.000000
  0.000000  0.000000  0.059469      2.000000
  0.035341  0.000000  0.059469      4.000000
  0.000000  0.035341  0.059469      4.000000
  0.035341  0.035341  0.059469      4.000000
 -0.035341  0.035341  0.059469      4.000000
 


--------------------------------------------------------------------------------------------------------




 Dimension of arrays:
   k-points           NKPTS =     10   k-points in BZ     NKDIM =     10   number of bands    NBANDS=    252
   number of dos      NEDOS =    301   number of ions     NIONS =     48
   non local maximal  LDIM  =      6   non local SUM 2l+1 LMDIM =     18
   total plane-waves  NPLWV = 235200
   max r-space proj   IRMAX =      1   max aug-charges    IRDMAX= 149969
   dimension x,y,z NGX =    70 NGY =   70 NGZ =   48
   dimension x,y,z NGXF=   140 NGYF=  140 NGZF=   96
   support grid    NGXF=   280 NGYF=  280 NGZF=  192
   ions per type =              31  16   1
   NGX,Y,Z   is equivalent  to a cutoff of  12.34, 12.34, 12.65 a.u.
   NGXF,Y,Z  is equivalent  to a cutoff of  24.68, 24.68, 25.31 a.u.

 SYSTEM =  SnO2                                    
 POSCAR =  SnO2                                    

 Startparameter for this run:
   NWRITE =      2    write-flag & timer
   PREC   = accura    normal or accurate (medium, high low for compatibility)
   ISTART =      0    job   : 0-new  1-cont  2-samecut
   ICHARG =      2    charge: 1-file 2-atom 10-const
   ISPIN  =      1    spin polarized calculation?
   LNONCOLLINEAR =      F non collinear calculations
   LSORBIT =      F    spin-orbit coupling
   INIWAV =      1    electr: 0-lowe 1-rand  2-diag
   LASPH  =      F    aspherical Exc in radial PAW
   METAGGA=      F    non-selfconsistent MetaGGA calc.

 Electronic Relaxation 1
   ENCUT  =  480.0 eV  35.28 Ry    5.94 a.u.  16.85 16.85 11.26*2*pi/ulx,y,z
   ENINI  =  480.0     initial cutoff
   ENAUG  =  613.6 eV  augmentation charge cutoff
   NELM   =     60;   NELMIN=  2; NELMDL= -5     # of ELM steps 
   EDIFF  = 0.1E-03   stopping-criterion for ELM
   LREAL  =      F    real-space projection
   NLSPLINE    = F    spline interpolate recip. space projectors
   LCOMPAT=      F    compatible to vasp.4.4
   GGA_COMPAT  = T    GGA compatible to vasp.4.4-vasp.4.6
   LMAXPAW     = -100 max onsite density
   LMAXMIX     =    4 max onsite mixed and CHGCAR
   VOSKOWN=      0    Vosko Wilk Nusair interpolation
   ROPT   =    0.00000   0.00000   0.00000
 Ionic relaxation
   EDIFFG = -.1E-01   stopping-criterion for IOM
   NSW    =    100    number of steps for IOM
   NBLOCK =      1;   KBLOCK =    100    inner block; outer block 
   IBRION =      1    ionic relax: 0-MD 1-quasi-New 2-CG
   NFREE  =      0    steps in history (QN), initial steepest desc. (CG)
   ISIF   =      2    stress and relaxation
   IWAVPR =     11    prediction:  0-non 1-charg 2-wave 3-comb
   ISYM   =      2    0-nonsym 1-usesym 2-fastsym
   LCORR  =      T    Harris-Foulkes like correction to forces

   POTIM  = 0.5000    time-step for ionic-motion
   TEIN   =    0.0    initial temperature
   TEBEG  =    0.0;   TEEND  =   0.0 temperature during run
   SMASS  =  -3.00    Nose mass-parameter (am)
   estimated Nose-frequenzy (Omega)   =  0.10E-29 period in steps =****** mass=  -0.203E-26a.u.
   SCALEE = 1.0000    scale energy and forces
   NPACO  =    256;   APACO  = 16.0  distance and # of slots for P.C.
   PSTRESS=    0.0 pullay stress

  Mass of Ions in am
   POMASS =  16.00118.71 19.00
  Ionic Valenz
   ZVAL   =   6.00 14.00  7.00
  Atomic Wigner-Seitz radii
   RWIGS  =  -1.00 -1.00 -1.00
  virtual crystal weights 
   VCA    =   1.00  1.00  1.00
   NELECT =     417.0000    total number of electrons
   NUPDOWN=      -1.0000    fix difference up-down

 DOS related values:
   EMIN   =  10.00;   EMAX   =-10.00  energy-range for DOS
   EFERMI =   0.00
   ISMEAR =     0;   SIGMA  =   0.10  broadening in eV -4-tet -1-fermi 0-gaus

 Electronic relaxation 2 (details)
   IALGO  =     48    algorithm
   LDIAG  =      T    sub-space diagonalisation (order eigenvalues)
   LSUBROT=      F    optimize rotation matrix (better conditioning)
   TURBO    =      0    0=normal 1=particle mesh
   IRESTART =      0    0=no restart 2=restart with 2 vectors
   NREBOOT  =      0    no. of reboots
   NMIN     =      0    reboot dimension
   EREF     =   0.00    reference energy to select bands
   IMIX   =      4    mixing-type and parameters
     AMIX     =   0.40;   BMIX     =  1.00
     AMIX_MAG =   1.60;   BMIX_MAG =  1.00
     AMIN     =   0.10
     WC   =   100.;   INIMIX=   1;  MIXPRE=   1;  MAXMIX= -45

 Intra band minimization:
   WEIMIN = 0.0010     energy-eigenvalue tresh-hold
   EBREAK =  0.99E-07  absolut break condition
   DEPER  =   0.30     relativ break condition  

   TIME   =   0.40     timestep for ELM

  volume/ion in A,a.u.               =      11.69        78.87
  Fermi-wavevector in a.u.,A,eV,Ry     =   1.482984  2.802434 29.922516  2.199243
  Thomas-Fermi vector in A             =   2.596702
 
 Write flags
   LWAVE        =      T    write WAVECAR
   LDOWNSAMPLE  =      F    k-point downsampling of WAVECAR
   LCHARG       =      T    write CHGCAR
   LVTOT        =      F    write LOCPOT, total local potential
   LVHAR        =      F    write LOCPOT, Hartree potential only
   LELF         =      F    write electronic localiz. function (ELF)
   LORBIT       =      0    0 simple, 1 ext, 2 COOP (PROOUT), +10 PAW based schemes


 Dipole corrections
   LMONO  =      F    monopole corrections only (constant potential shift)
   LDIPOL =      F    correct potential (dipole corrections)
   IDIPOL =      0    1-x, 2-y, 3-z, 4-all directions 
   EPSILON=  1.0000000 bulk dielectric constant

 LDA+U is selected, type is set to LDAUTYPE =  2
   angular momentum for each species LDAUL =    -1    2   -1
   U (eV)           for each species LDAUU =   0.0  4.0  0.0
   J (eV)           for each species LDAUJ =   0.0  0.0  0.0
 Exchange correlation treatment:
   GGA     =    --    GGA type
   LEXCH   =     8    internal setting for exchange type
   VOSKOWN=      0    Vosko Wilk Nusair interpolation
   LHFCALC =     F    Hartree Fock is set to
   LHFONE  =     F    Hartree Fock one center treatment
   AEXX    =    0.0000 exact exchange contribution

 Linear response parameters
   LEPSILON=     F    determine dielectric tensor
   LRPA    =     F    only Hartree local field effects (RPA)
   LNABLA  =     F    use nabla operator in PAW spheres
   LVEL    =     F    velocity operator in full k-point grid
   LINTERFAST=   F  fast interpolation
   KINTER  =     0    interpolate to denser k-point grid
   CSHIFT  =0.1000    complex shift for real part using Kramers Kronig
   OMEGAMAX=  -1.0    maximum frequency
   DEG_THRESHOLD= 0.2000000E-02 threshold for treating states as degnerate
   RTIME   =   -0.100 relaxation time in fs
  (WPLASMAI=    0.000 imaginary part of plasma frequency in eV, 0.658/RTIME)
   DFIELD  = 0.0000000 0.0000000 0.0000000 field for delta impulse in time
 
 Orbital magnetization related:
   ORBITALMAG=     F  switch on orbital magnetization
   LCHIMAG   =     F  perturbation theory with respect to B field
   DQ        =  0.001000  dq finite difference perturbation B field
   LLRAUG    =     F  two centre corrections for induced B field



--------------------------------------------------------------------------------------------------------


 quasi-Newton-method for relaxation of ions
   using selective dynamics as specified on POSCAR
 charge density and potential will be updated during run
 non-spin polarized calculation
 RMM-DIIS sequential band-by-band
 perform sub-space diagonalisation
    before iterative eigenvector-optimisation
 modified Broyden-mixing scheme, WC =      100.0
 initial mixing is a Kerker type mixing with AMIX =  0.4000 and BMIX =      1.0000
 Hartree-type preconditioning will be used
 using additional bands           43
 reciprocal scheme for non local part
 use partial core corrections
 calculate Harris-corrections to forces 
   (improved forces if not selfconsistent)
 use gradient corrections 
 use of overlap-Matrix (Vanderbilt PP)
 Gauss-broadening in eV      SIGMA  =   0.10


--------------------------------------------------------------------------------------------------------


  energy-cutoff  :      480.00
  volume of cell :      560.98
      direct lattice vectors                 reciprocal lattice vectors
     9.432027167  0.000000000  0.000000000     0.106021747  0.000000000  0.000000000
     0.000000000  9.432027167  0.000000000     0.000000000  0.106021747  0.000000000
     0.000000000  0.000000000  6.305806843     0.000000000  0.000000000  0.158583989

  length of vectors
     9.432027167  9.432027167  6.305806843     0.106021747  0.106021747  0.158583989


 
 k-points in units of 2pi/SCALE and weight: Automatic mesh                          
   0.00000000  0.00000000  0.01982300       0.056
   0.03534058  0.00000000  0.01982300       0.111
   0.00000000  0.03534058  0.01982300       0.111
   0.03534058  0.03534058  0.01982300       0.111
  -0.03534058  0.03534058  0.01982300       0.111
   0.00000000  0.00000000  0.05946900       0.056
   0.03534058  0.00000000  0.05946900       0.111
   0.00000000  0.03534058  0.05946900       0.111
   0.03534058  0.03534058  0.05946900       0.111
  -0.03534058  0.03534058  0.05946900       0.111
 
 k-points in reciprocal lattice and weights: Automatic mesh                          
   0.00000000  0.00000000  0.12500000       0.056
   0.33333333  0.00000000  0.12500000       0.111
   0.00000000  0.33333333  0.12500000       0.111
   0.33333333  0.33333333  0.12500000       0.111
  -0.33333333  0.33333333  0.12500000       0.111
   0.00000000  0.00000000  0.37500000       0.056
   0.33333333  0.00000000  0.37500000       0.111
   0.00000000  0.33333333  0.37500000       0.111
   0.33333333  0.33333333  0.37500000       0.111
  -0.33333333  0.33333333  0.37500000       0.111
 
 position of ions in fractional coordinates (direct lattice) 
   0.09707491  0.90292509  0.75000000
   0.40292509  0.59707491  0.75000000
   0.90292509  0.59707491  0.75000000
   0.65292509  0.15292509  0.00000000
   0.84707491  0.34707491  0.00000000
   0.90292509  0.09707491  0.25000000
   0.59707491  0.40292509  0.25000000
   0.65292509  0.15292509  0.50000000
   0.34707491  0.84707491  0.50000000
   0.84707491  0.34707491  0.50000000
   0.59707491  0.40292509  0.75000000
   0.65292509  0.65292509  0.00000000
   0.84707491  0.84707491  0.00000000
   0.90292509  0.59707491  0.25000000
   0.59707491  0.90292509  0.25000000
   0.65292509  0.65292509  0.50000000
   0.84707491  0.84707491  0.50000000
   0.90292509  0.09707491  0.75000000
   0.15292509  0.65292509  0.50000000
   0.59707491  0.90292509  0.75000000
   0.34707491  0.34707491  0.50000000
   0.09707491  0.90292509  0.25000000
   0.40292509  0.59707491  0.25000000
   0.34707491  0.84707491  0.00000000
   0.15292509  0.15292509  0.50000000
   0.15292509  0.65292509  0.00000000
   0.09707491  0.40292509  0.25000000
   0.40292509  0.09707491  0.75000000
   0.09707491  0.40292509  0.75000000
   0.34707491  0.34707491  0.00000000
   0.40292509  0.09707491  0.25000000
   0.50000000  0.50000000  0.50000000
   0.75000000  0.75000000  0.75000000
   0.25000000  0.25000000  0.25000000
   0.00000000  0.00000000  0.50000000
   0.75000000  0.75000000  0.25000000
   0.00000000  0.50000000  0.50000000
   0.25000000  0.25000000  0.75000000
   0.25000000  0.75000000  0.75000000
   0.75000000  0.25000000  0.75000000
   0.50000000  0.00000000  0.50000000
   0.00000000  0.50000000  0.00000000
   0.25000000  0.75000000  0.25000000
   0.75000000  0.25000000  0.25000000
   0.50000000  0.00000000  0.00000000
   0.50000000  0.50000000  0.00000000
   0.00000000  0.00000000  0.00000000
   0.14292509  0.16292509  0.00000000
 
 position of ions in cartesian coordinates  (Angst):
   0.91561321  8.51641396  4.72935513
   3.80040037  5.63162680  4.72935513
   8.51641396  5.63162680  4.72935513
   6.15840716  1.44239358  0.00000000
   7.98963359  3.27362000  0.00000000
   8.51641396  0.91561321  1.57645171
   5.63162680  3.80040037  1.57645171
   6.15840716  1.44239358  3.15290342
   3.27362000  7.98963359  3.15290342
   7.98963359  3.27362000  3.15290342
   5.63162680  3.80040037  4.72935513
   6.15840716  6.15840716  0.00000000
   7.98963359  7.98963359  0.00000000
   8.51641396  5.63162680  1.57645171
   5.63162680  8.51641396  1.57645171
   6.15840716  6.15840716  3.15290342
   7.98963359  7.98963359  3.15290342
   8.51641396  0.91561321  4.72935513
   1.44239358  6.15840716  3.15290342
   5.63162680  8.51641396  4.72935513
   3.27362000  3.27362000  3.15290342
   0.91561321  8.51641396  1.57645171
   3.80040037  5.63162680  1.57645171
   3.27362000  7.98963359  0.00000000
   1.44239358  1.44239358  3.15290342
   1.44239358  6.15840716  0.00000000
   0.91561321  3.80040037  1.57645171
   3.80040037  0.91561321  4.72935513
   0.91561321  3.80040037  4.72935513
   3.27362000  3.27362000  0.00000000
   3.80040037  0.91561321  1.57645171
   4.71601358  4.71601358  3.15290342
   7.07402038  7.07402038  4.72935513
   2.35800679  2.35800679  1.57645171
   0.00000000  0.00000000  3.15290342
   7.07402038  7.07402038  1.57645171
   0.00000000  4.71601358  3.15290342
   2.35800679  2.35800679  4.72935513
   2.35800679  7.07402038  4.72935513
   7.07402038  2.35800679  4.72935513
   4.71601358  0.00000000  3.15290342
   0.00000000  4.71601358  0.00000000
   2.35800679  7.07402038  1.57645171
   7.07402038  2.35800679  1.57645171
   4.71601358  0.00000000  0.00000000
   4.71601358  4.71601358  0.00000000
   0.00000000  0.00000000  0.00000000
   1.34807331  1.53671385  0.00000000
 


--------------------------------------------------------------------------------------------------------


 k-point  1 :   0.0000 0.0000 0.1250  plane waves:   13447
 k-point  2 :   0.3333 0.0000 0.1250  plane waves:   13402
 k-point  3 :   0.0000 0.3333 0.1250  plane waves:   13402
 k-point  4 :   0.3333 0.3333 0.1250  plane waves:   13398
 k-point  5 :  -0.3333 0.3333 0.1250  plane waves:   13398
 k-point  6 :   0.0000 0.0000 0.3750  plane waves:   13390
 k-point  7 :   0.3333 0.0000 0.3750  plane waves:   13392
 k-point  8 :   0.0000 0.3333 0.3750  plane waves:   13392
 k-point  9 :   0.3333 0.3333 0.3750  plane waves:   13396
 k-point 10 :  -0.3333 0.3333 0.3750  plane waves:   13396

 maximum and minimum number of plane-waves per node :       222      197

 maximum number of plane-waves:     13447
 maximum index in each direction: 
   IXMAX=   17   IYMAX=   16   IZMAX=   11
   IXMIN=  -17   IYMIN=  -17   IZMIN=  -11


 parallel 3D FFT for wavefunctions:
    minimum data exchange during FFTs selected (reduces bandwidth)
 parallel 3D FFT for charge:
    minimum data exchange during FFTs selected (reduces bandwidth)


 total amount of memory used by VASP MPI-rank0    36613. kBytes
=======================================================================

   base      :      30000. kBytes
   nonl-proj :       1078. kBytes
   fftplans  :       2038. kBytes
   grid      :       1144. kBytes
   one-center:         15. kBytes
   wavefun   :       2338. kBytes
 
     INWAV:  cpu time    0.0001: real time    0.0001
 Broyden mixing: mesh for mixing (old mesh)
   NGX = 33   NGY = 33   NGZ = 23
  (NGX  =140   NGY  =140   NGZ  = 96)
  gives a total of  25047 points

 initial charge density was supplied:
 charge density of overlapping atoms calculated
 number of electron     417.0000000 magnetization 
 keeping initial charge density in first step


--------------------------------------------------------------------------------------------------------


 Maximum index for augmentation-charges         4898 (set IRDMAX)


--------------------------------------------------------------------------------------------------------


 First call to EWALD:  gamma=   0.215
 Maximum number of real-space cells 2x 2x 3
 Maximum number of reciprocal cells 3x 3x 2

    FEWALD:  cpu time    0.0073: real time    0.0076


--------------------------------------- Iteration      1(   1)  ---------------------------------------


    POTLOK:  cpu time    0.0829: real time    0.1029
    SETDIJ:  cpu time    0.1112: real time    0.1114
atom =  32  type =  2  l = 2
 
 onsite density matrix
 
spin component  1
 
  0.9926  0.0000  0.0000  0.0000  0.0000
  0.0000  0.9926  0.0000  0.0000  0.0000
  0.0000  0.0000  0.9926  0.0000  0.0000
  0.0000  0.0000  0.0000  0.9926  0.0000
  0.0000  0.0000  0.0000  0.0000  0.9926
 
spin component  2
 
  0.9926  0.0000  0.0000  0.0000  0.0000
  0.0000  0.9926  0.0000  0.0000  0.0000
  0.0000  0.0000  0.9926  0.0000  0.0000
  0.0000  0.0000  0.0000  0.9926  0.0000
  0.0000  0.0000  0.0000  0.0000  0.9926
 
 occupancies and eigenvectors
 
  o =  0.9926  v =  1.0000  0.0000  0.0000  0.0000  0.0000  0.0000  0.0000  0.0000  0.0000  0.0000      0.0000  0.0000  0.0000  0.0000  0.0000  0.0000  0.0000  0.0000  0.0000  0.0000
  o =  0.9926  v =  0.0000  1.0000  0.0000  0.0000  0.0000  0.0000  0.0000  0.0000  0.0000  0.0000      0.0000  0.0000  0.0000  0.0000  0.0000  0.0000  0.0000  0.0000  0.0000  0.0000
  o =  0.9926  v =  0.0000  0.0000  1.0000  0.0000  0.0000  0.0000  0.0000  0.0000  0.0000  0.0000      0.0000  0.0000  0.0000  0.0000  0.0000  0.0000  0.0000  0.0000  0.0000  0.0000
  o =  0.9926  v =  0.0000  0.0000  0.0000  0.0000 -1.0000  0.0000  0.0000  0.0000  0.0000  0.0000      0.0000  0.0000  0.0000  0.0000  0.0000  0.0000  0.0000  0.0000  0.0000  0.0000
  o =  0.9926  v =  0.0000  0.0000  0.0000 -1.0000  0.0000  0.0000  0.0000  0.0000  0.0000  0.0000      0.0000  0.0000  0.0000  0.0000  0.0000  0.0000  0.0000  0.0000  0.0000  0.0000
  o =  0.9926  v =  0.0000  0.0000  0.0000  0.0000  0.0000  1.0000  0.0000  0.0000  0.0000  0.0000      0.0000  0.0000  0.0000  0.0000  0.0000  0.0000  0.0000  0.0000  0.0000  0.0000
  o =  0.9926  v =  0.0000  0.0000  0.0000  0.0000  0.0000  0.0000  1.0000  0.0000  0.0000  0.0000      0.0000  0.0000  0.0000  0.0000  0.0000  0.0000  0.0000  0.0000  0.0000  0.0000
  o =  0.9926  v =  0.0000  0.0000  0.0000  0.0000  0.0000  0.0000  0.0000  1.0000  0.0000  0.0000      0.0000  0.0000  0.0000  0.0000  0.0000  0.0000  0.0000  0.0000  0.0000  0.0000
  o =  0.9926  v =  0.0000  0.0000  0.0000  0.0000  0.0000  0.0000  0.0000  0.0000  0.0000 -1.0000      0.0000  0.0000  0.0000  0.0000  0.0000  0.0000  0.0000  0.0000  0.0000  0.0000
  o =  0.9926  v =  0.0000  0.0000  0.0000  0.0000  0.0000  0.0000  0.0000  0.0000 -1.0000  0.0000      0.0000  0.0000  0.0000  0.0000  0.0000  0.0000  0.0000  0.0000  0.0000  0.0000
atom =  33  type =  2  l = 2
 
 onsite density matrix
 
spin component  1
 
  0.9926  0.0000  0.0000  0.0000  0.0000
  0.0000  0.9926  0.0000  0.0000  0.0000
  0.0000  0.0000  0.9926  0.0000  0.0000
  0.0000  0.0000  0.0000  0.9926  0.0000
  0.0000  0.0000  0.0000  0.0000  0.9926
 
spin component  2
 
  0.9926  0.0000  0.0000  0.0000  0.0000
  0.0000  0.9926  0.0000  0.0000  0.0000
  0.0000  0.0000  0.9926  0.0000  0.0000
  0.0000  0.0000  0.0000  0.9926  0.0000
  0.0000  0.0000  0.0000  0.0000  0.9926
 
 occupancies and eigenvectors
 
  o =  0.9926  v =  1.0000  0.0000  0.0000  0.0000  0.0000  0.0000  0.0000  0.0000  0.0000  0.0000      0.0000  0.0000  0.0000  0.0000  0.0000  0.0000  0.0000  0.0000  0.0000  0.0000
  o =  0.9926  v =  0.0000  1.0000  0.0000  0.0000  0.0000  0.0000  0.0000  0.0000  0.0000  0.0000      0.0000  0.0000  0.0000  0.0000  0.0000  0.0000  0.0000  0.0000  0.0000  0.0000
  o =  0.9926  v =  0.0000  0.0000  1.0000  0.0000  0.0000  0.0000  0.0000  0.0000  0.0000  0.0000      0.0000  0.0000  0.0000  0.0000  0.0000  0.0000  0.0000  0.0000  0.0000  0.0000
  o =  0.9926  v =  0.0000  0.0000  0.0000  0.0000 -1.0000  0.0000  0.0000  0.0000  0.0000  0.0000      0.0000  0.0000  0.0000  0.0000  0.0000  0.0000  0.0000  0.0000  0.0000  0.0000
  o =  0.9926  v =  0.0000  0.0000  0.0000 -1.0000  0.0000  0.0000  0.0000  0.0000  0.0000  0.0000      0.0000  0.0000  0.0000  0.0000  0.0000  0.0000  0.0000  0.0000  0.0000  0.0000
  o =  0.9926  v =  0.0000  0.0000  0.0000  0.0000  0.0000  1.0000  0.0000  0.0000  0.0000  0.0000      0.0000  0.0000  0.0000  0.0000  0.0000  0.0000  0.0000  0.0000  0.0000  0.0000
  o =  0.9926  v =  0.0000  0.0000  0.0000  0.0000  0.0000  0.0000  1.0000  0.0000  0.0000  0.0000      0.0000  0.0000  0.0000  0.0000  0.0000  0.0000  0.0000  0.0000  0.0000  0.0000
  o =  0.9926  v =  0.0000  0.0000  0.0000  0.0000  0.0000  0.0000  0.0000  1.0000  0.0000  0.0000      0.0000  0.0000  0.0000  0.0000  0.0000  0.0000  0.0000  0.0000  0.0000  0.0000
  o =  0.9926  v =  0.0000  0.0000  0.0000  0.0000  0.0000  0.0000  0.0000  0.0000  0.0000 -1.0000      0.0000  0.0000  0.0000  0.0000  0.0000  0.0000  0.0000  0.0000  0.0000  0.0000
  o =  0.9926  v =  0.0000  0.0000  0.0000  0.0000  0.0000  0.0000  0.0000  0.0000 -1.0000  0.0000      0.0000  0.0000  0.0000  0.0000  0.0000  0.0000  0.0000  0.0000  0.0000  0.0000
atom =  34  type =  2  l = 2
 
 onsite density matrix
 
spin component  1
 
  0.9926  0.0000  0.0000  0.0000  0.0000
  0.0000  0.9926  0.0000  0.0000  0.0000
  0.0000  0.0000  0.9926  0.0000  0.0000
  0.0000  0.0000  0.0000  0.9926  0.0000
  0.0000  0.0000  0.0000  0.0000  0.9926
 
spin component  2
 
  0.9926  0.0000  0.0000  0.0000  0.0000
  0.0000  0.9926  0.0000  0.0000  0.0000
  0.0000  0.0000  0.9926  0.0000  0.0000
  0.0000  0.0000  0.0000  0.9926  0.0000
  0.0000  0.0000  0.0000  0.0000  0.9926
 
 occupancies and eigenvectors
 
  o =  0.9926  v =  1.0000  0.0000  0.0000  0.0000  0.0000  0.0000  0.0000  0.0000  0.0000  0.0000      0.0000  0.0000  0.0000  0.0000  0.0000  0.0000  0.0000  0.0000  0.0000  0.0000
  o =  0.9926  v =  0.0000  1.0000  0.0000  0.0000  0.0000  0.0000  0.0000  0.0000  0.0000  0.0000      0.0000  0.0000  0.0000  0.0000  0.0000  0.0000  0.0000  0.0000  0.0000  0.0000
  o =  0.9926  v =  0.0000  0.0000  1.0000  0.0000  0.0000  0.0000  0.0000  0.0000  0.0000  0.0000      0.0000  0.0000  0.0000  0.0000  0.0000  0.0000  0.0000  0.0000  0.0000  0.0000
  o =  0.9926  v =  0.0000  0.0000  0.0000  0.0000 -1.0000  0.0000  0.0000  0.0000  0.0000  0.0000      0.0000  0.0000  0.0000  0.0000  0.0000  0.0000  0.0000  0.0000  0.0000  0.0000
  o =  0.9926  v =  0.0000  0.0000  0.0000 -1.0000  0.0000  0.0000  0.0000  0.0000  0.0000  0.0000      0.0000  0.0000  0.0000  0.0000  0.0000  0.0000  0.0000  0.0000  0.0000  0.0000
  o =  0.9926  v =  0.0000  0.0000  0.0000  0.0000  0.0000  1.0000  0.0000  0.0000  0.0000  0.0000      0.0000  0.0000  0.0000  0.0000  0.0000  0.0000  0.0000  0.0000  0.0000  0.0000
  o =  0.9926  v =  0.0000  0.0000  0.0000  0.0000  0.0000  0.0000  1.0000  0.0000  0.0000  0.0000      0.0000  0.0000  0.0000  0.0000  0.0000  0.0000  0.0000  0.0000  0.0000  0.0000
  o =  0.9926  v =  0.0000  0.0000  0.0000  0.0000  0.0000  0.0000  0.0000  1.0000  0.0000  0.0000      0.0000  0.0000  0.0000  0.0000  0.0000  0.0000  0.0000  0.0000  0.0000  0.0000
  o =  0.9926  v =  0.0000  0.0000  0.0000  0.0000  0.0000  0.0000  0.0000  0.0000  0.0000 -1.0000      0.0000  0.0000  0.0000  0.0000  0.0000  0.0000  0.0000  0.0000  0.0000  0.0000
  o =  0.9926  v =  0.0000  0.0000  0.0000  0.0000  0.0000  0.0000  0.0000  0.0000 -1.0000  0.0000      0.0000  0.0000  0.0000  0.0000  0.0000  0.0000  0.0000  0.0000  0.0000  0.0000
atom =  35  type =  2  l = 2
 
 onsite density matrix
 
spin component  1
 
  0.9926  0.0000  0.0000  0.0000  0.0000
  0.0000  0.9926  0.0000  0.0000  0.0000
  0.0000  0.0000  0.9926  0.0000  0.0000
  0.0000  0.0000  0.0000  0.9926  0.0000
  0.0000  0.0000  0.0000  0.0000  0.9926
 
spin component  2
 
  0.9926  0.0000  0.0000  0.0000  0.0000
  0.0000  0.9926  0.0000  0.0000  0.0000
  0.0000  0.0000  0.9926  0.0000  0.0000
  0.0000  0.0000  0.0000  0.9926  0.0000
  0.0000  0.0000  0.0000  0.0000  0.9926
 
 occupancies and eigenvectors
 
  o =  0.9926  v =  1.0000  0.0000  0.0000  0.0000  0.0000  0.0000  0.0000  0.0000  0.0000  0.0000      0.0000  0.0000  0.0000  0.0000  0.0000  0.0000  0.0000  0.0000  0.0000  0.0000
  o =  0.9926  v =  0.0000  1.0000  0.0000  0.0000  0.0000  0.0000  0.0000  0.0000  0.0000  0.0000      0.0000  0.0000  0.0000  0.0000  0.0000  0.0000  0.0000  0.0000  0.0000  0.0000
  o =  0.9926  v =  0.0000  0.0000  1.0000  0.0000  0.0000  0.0000  0.0000  0.0000  0.0000  0.0000      0.0000  0.0000  0.0000  0.0000  0.0000  0.0000  0.0000  0.0000  0.0000  0.0000
  o =  0.9926  v =  0.0000  0.0000  0.0000  0.0000 -1.0000  0.0000  0.0000  0.0000  0.0000  0.0000      0.0000  0.0000  0.0000  0.0000  0.0000  0.0000  0.0000  0.0000  0.0000  0.0000
  o =  0.9926  v =  0.0000  0.0000  0.0000 -1.0000  0.0000  0.0000  0.0000  0.0000  0.0000  0.0000      0.0000  0.0000  0.0000  0.0000  0.0000  0.0000  0.0000  0.0000  0.0000  0.0000
  o =  0.9926  v =  0.0000  0.0000  0.0000  0.0000  0.0000  1.0000  0.0000  0.0000  0.0000  0.0000      0.0000  0.0000  0.0000  0.0000  0.0000  0.0000  0.0000  0.0000  0.0000  0.0000
  o =  0.9926  v =  0.0000  0.0000  0.0000  0.0000  0.0000  0.0000  1.0000  0.0000  0.0000  0.0000      0.0000  0.0000  0.0000  0.0000  0.0000  0.0000  0.0000  0.0000  0.0000  0.0000
  o =  0.9926  v =  0.0000  0.0000  0.0000  0.0000  0.0000  0.0000  0.0000  1.0000  0.0000  0.0000      0.0000  0.0000  0.0000  0.0000  0.0000  0.0000  0.0000  0.0000  0.0000  0.0000
  o =  0.9926  v =  0.0000  0.0000  0.0000  0.0000  0.0000  0.0000  0.0000  0.0000  0.0000 -1.0000      0.0000  0.0000  0.0000  0.0000  0.0000  0.0000  0.0000  0.0000  0.0000  0.0000
  o =  0.9926  v =  0.0000  0.0000  0.0000  0.0000  0.0000  0.0000  0.0000  0.0000 -1.0000  0.0000      0.0000  0.0000  0.0000  0.0000  0.0000  0.0000  0.0000  0.0000  0.0000  0.0000
atom =  36  type =  2  l = 2
 
 onsite density matrix
 
spin component  1
 
  0.9926  0.0000  0.0000  0.0000  0.0000
  0.0000  0.9926  0.0000  0.0000  0.0000
  0.0000  0.0000  0.9926  0.0000  0.0000
  0.0000  0.0000  0.0000  0.9926  0.0000
  0.0000  0.0000  0.0000  0.0000  0.9926
 
spin component  2
 
  0.9926  0.0000  0.0000  0.0000  0.0000
  0.0000  0.9926  0.0000  0.0000  0.0000
  0.0000  0.0000  0.9926  0.0000  0.0000
  0.0000  0.0000  0.0000  0.9926  0.0000
  0.0000  0.0000  0.0000  0.0000  0.9926
 
 occupancies and eigenvectors
 
  o =  0.9926  v =  1.0000  0.0000  0.0000  0.0000  0.0000  0.0000  0.0000  0.0000  0.0000  0.0000      0.0000  0.0000  0.0000  0.0000  0.0000  0.0000  0.0000  0.0000  0.0000  0.0000
  o =  0.9926  v =  0.0000  1.0000  0.0000  0.0000  0.0000  0.0000  0.0000  0.0000  0.0000  0.0000      0.0000  0.0000  0.0000  0.0000  0.0000  0.0000  0.0000  0.0000  0.0000  0.0000
  o =  0.9926  v =  0.0000  0.0000  1.0000  0.0000  0.0000  0.0000  0.0000  0.0000  0.0000  0.0000      0.0000  0.0000  0.0000  0.0000  0.0000  0.0000  0.0000  0.0000  0.0000  0.0000
  o =  0.9926  v =  0.0000  0.0000  0.0000  0.0000 -1.0000  0.0000  0.0000  0.0000  0.0000  0.0000      0.0000  0.0000  0.0000  0.0000  0.0000  0.0000  0.0000  0.0000  0.0000  0.0000
  o =  0.9926  v =  0.0000  0.0000  0.0000 -1.0000  0.0000  0.0000  0.0000  0.0000  0.0000  0.0000      0.0000  0.0000  0.0000  0.0000  0.0000  0.0000  0.0000  0.0000  0.0000  0.0000
  o =  0.9926  v =  0.0000  0.0000  0.0000  0.0000  0.0000  1.0000  0.0000  0.0000  0.0000  0.0000      0.0000  0.0000  0.0000  0.0000  0.0000  0.0000  0.0000  0.0000  0.0000  0.0000
  o =  0.9926  v =  0.0000  0.0000  0.0000  0.0000  0.0000  0.0000  1.0000  0.0000  0.0000  0.0000      0.0000  0.0000  0.0000  0.0000  0.0000  0.0000  0.0000  0.0000  0.0000  0.0000
  o =  0.9926  v =  0.0000  0.0000  0.0000  0.0000  0.0000  0.0000  0.0000  1.0000  0.0000  0.0000      0.0000  0.0000  0.0000  0.0000  0.0000  0.0000  0.0000  0.0000  0.0000  0.0000
  o =  0.9926  v =  0.0000  0.0000  0.0000  0.0000  0.0000  0.0000  0.0000  0.0000  0.0000 -1.0000      0.0000  0.0000  0.0000  0.0000  0.0000  0.0000  0.0000  0.0000  0.0000  0.0000
  o =  0.9926  v =  0.0000  0.0000  0.0000  0.0000  0.0000  0.0000  0.0000  0.0000 -1.0000  0.0000      0.0000  0.0000  0.0000  0.0000  0.0000  0.0000  0.0000  0.0000  0.0000  0.0000
atom =  37  type =  2  l = 2
 
 onsite density matrix
 
spin component  1
 
  0.9926  0.0000  0.0000  0.0000  0.0000
  0.0000  0.9926  0.0000  0.0000  0.0000
  0.0000  0.0000  0.9926  0.0000  0.0000
  0.0000  0.0000  0.0000  0.9926  0.0000
  0.0000  0.0000  0.0000  0.0000  0.9926
 
spin component  2
 
  0.9926  0.0000  0.0000  0.0000  0.0000
  0.0000  0.9926  0.0000  0.0000  0.0000
  0.0000  0.0000  0.9926  0.0000  0.0000
  0.0000  0.0000  0.0000  0.9926  0.0000
  0.0000  0.0000  0.0000  0.0000  0.9926
 
 occupancies and eigenvectors
 
  o =  0.9926  v =  1.0000  0.0000  0.0000  0.0000  0.0000  0.0000  0.0000  0.0000  0.0000  0.0000      0.0000  0.0000  0.0000  0.0000  0.0000  0.0000  0.0000  0.0000  0.0000  0.0000
  o =  0.9926  v =  0.0000  1.0000  0.0000  0.0000  0.0000  0.0000  0.0000  0.0000  0.0000  0.0000      0.0000  0.0000  0.0000  0.0000  0.0000  0.0000  0.0000  0.0000  0.0000  0.0000
  o =  0.9926  v =  0.0000  0.0000  1.0000  0.0000  0.0000  0.0000  0.0000  0.0000  0.0000  0.0000      0.0000  0.0000  0.0000  0.0000  0.0000  0.0000  0.0000  0.0000  0.0000  0.0000
  o =  0.9926  v =  0.0000  0.0000  0.0000  0.0000 -1.0000  0.0000  0.0000  0.0000  0.0000  0.0000      0.0000  0.0000  0.0000  0.0000  0.0000  0.0000  0.0000  0.0000  0.0000  0.0000
  o =  0.9926  v =  0.0000  0.0000  0.0000 -1.0000  0.0000  0.0000  0.0000  0.0000  0.0000  0.0000      0.0000  0.0000  0.0000  0.0000  0.0000  0.0000  0.0000  0.0000  0.0000  0.0000
  o =  0.9926  v =  0.0000  0.0000  0.0000  0.0000  0.0000  1.0000  0.0000  0.0000  0.0000  0.0000      0.0000  0.0000  0.0000  0.0000  0.0000  0.0000  0.0000  0.0000  0.0000  0.0000
  o =  0.9926  v =  0.0000  0.0000  0.0000  0.0000  0.0000  0.0000  1.0000  0.0000  0.0000  0.0000      0.0000  0.0000  0.0000  0.0000  0.0000  0.0000  0.0000  0.0000  0.0000  0.0000
  o =  0.9926  v =  0.0000  0.0000  0.0000  0.0000  0.0000  0.0000  0.0000  1.0000  0.0000  0.0000      0.0000  0.0000  0.0000  0.0000  0.0000  0.0000  0.0000  0.0000  0.0000  0.0000
  o =  0.9926  v =  0.0000  0.0000  0.0000  0.0000  0.0000  0.0000  0.0000  0.0000  0.0000 -1.0000      0.0000  0.0000  0.0000  0.0000  0.0000  0.0000  0.0000  0.0000  0.0000  0.0000
  o =  0.9926  v =  0.0000  0.0000  0.0000  0.0000  0.0000  0.0000  0.0000  0.0000 -1.0000  0.0000      0.0000  0.0000  0.0000  0.0000  0.0000  0.0000  0.0000  0.0000  0.0000  0.0000
atom =  38  type =  2  l = 2
 
 onsite density matrix
 
spin component  1
 
  0.9926  0.0000  0.0000  0.0000  0.0000
  0.0000  0.9926  0.0000  0.0000  0.0000
  0.0000  0.0000  0.9926  0.0000  0.0000
  0.0000  0.0000  0.0000  0.9926  0.0000
  0.0000  0.0000  0.0000  0.0000  0.9926
 
spin component  2
 
  0.9926  0.0000  0.0000  0.0000  0.0000
  0.0000  0.9926  0.0000  0.0000  0.0000
  0.0000  0.0000  0.9926  0.0000  0.0000
  0.0000  0.0000  0.0000  0.9926  0.0000
  0.0000  0.0000  0.0000  0.0000  0.9926
 
 occupancies and eigenvectors
 
  o =  0.9926  v =  1.0000  0.0000  0.0000  0.0000  0.0000  0.0000  0.0000  0.0000  0.0000  0.0000      0.0000  0.0000  0.0000  0.0000  0.0000  0.0000  0.0000  0.0000  0.0000  0.0000
  o =  0.9926  v =  0.0000  1.0000  0.0000  0.0000  0.0000  0.0000  0.0000  0.0000  0.0000  0.0000      0.0000  0.0000  0.0000  0.0000  0.0000  0.0000  0.0000  0.0000  0.0000  0.0000
  o =  0.9926  v =  0.0000  0.0000  1.0000  0.0000  0.0000  0.0000  0.0000  0.0000  0.0000  0.0000      0.0000  0.0000  0.0000  0.0000  0.0000  0.0000  0.0000  0.0000  0.0000  0.0000
  o =  0.9926  v =  0.0000  0.0000  0.0000  0.0000 -1.0000  0.0000  0.0000  0.0000  0.0000  0.0000      0.0000  0.0000  0.0000  0.0000  0.0000  0.0000  0.0000  0.0000  0.0000  0.0000
  o =  0.9926  v =  0.0000  0.0000  0.0000 -1.0000  0.0000  0.0000  0.0000  0.0000  0.0000  0.0000      0.0000  0.0000  0.0000  0.0000  0.0000  0.0000  0.0000  0.0000  0.0000  0.0000
  o =  0.9926  v =  0.0000  0.0000  0.0000  0.0000  0.0000  1.0000  0.0000  0.0000  0.0000  0.0000      0.0000  0.0000  0.0000  0.0000  0.0000  0.0000  0.0000  0.0000  0.0000  0.0000
  o =  0.9926  v =  0.0000  0.0000  0.0000  0.0000  0.0000  0.0000  1.0000  0.0000  0.0000  0.0000      0.0000  0.0000  0.0000  0.0000  0.0000  0.0000  0.0000  0.0000  0.0000  0.0000
  o =  0.9926  v =  0.0000  0.0000  0.0000  0.0000  0.0000  0.0000  0.0000  1.0000  0.0000  0.0000      0.0000  0.0000  0.0000  0.0000  0.0000  0.0000  0.0000  0.0000  0.0000  0.0000
  o =  0.9926  v =  0.0000  0.0000  0.0000  0.0000  0.0000  0.0000  0.0000  0.0000  0.0000 -1.0000      0.0000  0.0000  0.0000  0.0000  0.0000  0.0000  0.0000  0.0000  0.0000  0.0000
  o =  0.9926  v =  0.0000  0.0000  0.0000  0.0000  0.0000  0.0000  0.0000  0.0000 -1.0000  0.0000      0.0000  0.0000  0.0000  0.0000  0.0000  0.0000  0.0000  0.0000  0.0000  0.0000
atom =  39  type =  2  l = 2
 
 onsite density matrix
 
spin component  1
 
  0.9926  0.0000  0.0000  0.0000  0.0000
  0.0000  0.9926  0.0000  0.0000  0.0000
  0.0000  0.0000  0.9926  0.0000  0.0000
  0.0000  0.0000  0.0000  0.9926  0.0000
  0.0000  0.0000  0.0000  0.0000  0.9926
 
spin component  2
 
  0.9926  0.0000  0.0000  0.0000  0.0000
  0.0000  0.9926  0.0000  0.0000  0.0000
  0.0000  0.0000  0.9926  0.0000  0.0000
  0.0000  0.0000  0.0000  0.9926  0.0000
  0.0000  0.0000  0.0000  0.0000  0.9926
 
 occupancies and eigenvectors
 
  o =  0.9926  v =  1.0000  0.0000  0.0000  0.0000  0.0000  0.0000  0.0000  0.0000  0.0000  0.0000      0.0000  0.0000  0.0000  0.0000  0.0000  0.0000  0.0000  0.0000  0.0000  0.0000
  o =  0.9926  v =  0.0000  1.0000  0.0000  0.0000  0.0000  0.0000  0.0000  0.0000  0.0000  0.0000      0.0000  0.0000  0.0000  0.0000  0.0000  0.0000  0.0000  0.0000  0.0000  0.0000
  o =  0.9926  v =  0.0000  0.0000  1.0000  0.0000  0.0000  0.0000  0.0000  0.0000  0.0000  0.0000      0.0000  0.0000  0.0000  0.0000  0.0000  0.0000  0.0000  0.0000  0.0000  0.0000
  o =  0.9926  v =  0.0000  0.0000  0.0000  0.0000 -1.0000  0.0000  0.0000  0.0000  0.0000  0.0000      0.0000  0.0000  0.0000  0.0000  0.0000  0.0000  0.0000  0.0000  0.0000  0.0000
  o =  0.9926  v =  0.0000  0.0000  0.0000 -1.0000  0.0000  0.0000  0.0000  0.0000  0.0000  0.0000      0.0000  0.0000  0.0000  0.0000  0.0000  0.0000  0.0000  0.0000  0.0000  0.0000
  o =  0.9926  v =  0.0000  0.0000  0.0000  0.0000  0.0000  1.0000  0.0000  0.0000  0.0000  0.0000      0.0000  0.0000  0.0000  0.0000  0.0000  0.0000  0.0000  0.0000  0.0000  0.0000
  o =  0.9926  v =  0.0000  0.0000  0.0000  0.0000  0.0000  0.0000  1.0000  0.0000  0.0000  0.0000      0.0000  0.0000  0.0000  0.0000  0.0000  0.0000  0.0000  0.0000  0.0000  0.0000
  o =  0.9926  v =  0.0000  0.0000  0.0000  0.0000  0.0000  0.0000  0.0000  1.0000  0.0000  0.0000      0.0000  0.0000  0.0000  0.0000  0.0000  0.0000  0.0000  0.0000  0.0000  0.0000
  o =  0.9926  v =  0.0000  0.0000  0.0000  0.0000  0.0000  0.0000  0.0000  0.0000  0.0000 -1.0000      0.0000  0.0000  0.0000  0.0000  0.0000  0.0000  0.0000  0.0000  0.0000  0.0000
  o =  0.9926  v =  0.0000  0.0000  0.0000  0.0000  0.0000  0.0000  0.0000  0.0000 -1.0000  0.0000      0.0000  0.0000  0.0000  0.0000  0.0000  0.0000  0.0000  0.0000  0.0000  0.0000
atom =  40  type =  2  l = 2
 
 onsite density matrix
 
spin component  1
 
  0.9926  0.0000  0.0000  0.0000  0.0000
  0.0000  0.9926  0.0000  0.0000  0.0000
  0.0000  0.0000  0.9926  0.0000  0.0000
  0.0000  0.0000  0.0000  0.9926  0.0000
  0.0000  0.0000  0.0000  0.0000  0.9926
 
spin component  2
 
  0.9926  0.0000  0.0000  0.0000  0.0000
  0.0000  0.9926  0.0000  0.0000  0.0000
  0.0000  0.0000  0.9926  0.0000  0.0000
  0.0000  0.0000  0.0000  0.9926  0.0000
  0.0000  0.0000  0.0000  0.0000  0.9926
 
 occupancies and eigenvectors
 
  o =  0.9926  v =  1.0000  0.0000  0.0000  0.0000  0.0000  0.0000  0.0000  0.0000  0.0000  0.0000      0.0000  0.0000  0.0000  0.0000  0.0000  0.0000  0.0000  0.0000  0.0000  0.0000
  o =  0.9926  v =  0.0000  1.0000  0.0000  0.0000  0.0000  0.0000  0.0000  0.0000  0.0000  0.0000      0.0000  0.0000  0.0000  0.0000  0.0000  0.0000  0.0000  0.0000  0.0000  0.0000
  o =  0.9926  v =  0.0000  0.0000  1.0000  0.0000  0.0000  0.0000  0.0000  0.0000  0.0000  0.0000      0.0000  0.0000  0.0000  0.0000  0.0000  0.0000  0.0000  0.0000  0.0000  0.0000
  o =  0.9926  v =  0.0000  0.0000  0.0000  0.0000 -1.0000  0.0000  0.0000  0.0000  0.0000  0.0000      0.0000  0.0000  0.0000  0.0000  0.0000  0.0000  0.0000  0.0000  0.0000  0.0000
  o =  0.9926  v =  0.0000  0.0000  0.0000 -1.0000  0.0000  0.0000  0.0000  0.0000  0.0000  0.0000      0.0000  0.0000  0.0000  0.0000  0.0000  0.0000  0.0000  0.0000  0.0000  0.0000
  o =  0.9926  v =  0.0000  0.0000  0.0000  0.0000  0.0000  1.0000  0.0000  0.0000  0.0000  0.0000      0.0000  0.0000  0.0000  0.0000  0.0000  0.0000  0.0000  0.0000  0.0000  0.0000
  o =  0.9926  v =  0.0000  0.0000  0.0000  0.0000  0.0000  0.0000  1.0000  0.0000  0.0000  0.0000      0.0000  0.0000  0.0000  0.0000  0.0000  0.0000  0.0000  0.0000  0.0000  0.0000
  o =  0.9926  v =  0.0000  0.0000  0.0000  0.0000  0.0000  0.0000  0.0000  1.0000  0.0000  0.0000      0.0000  0.0000  0.0000  0.0000  0.0000  0.0000  0.0000  0.0000  0.0000  0.0000
  o =  0.9926  v =  0.0000  0.0000  0.0000  0.0000  0.0000  0.0000  0.0000  0.0000  0.0000 -1.0000      0.0000  0.0000  0.0000  0.0000  0.0000  0.0000  0.0000  0.0000  0.0000  0.0000
  o =  0.9926  v =  0.0000  0.0000  0.0000  0.0000  0.0000  0.0000  0.0000  0.0000 -1.0000  0.0000      0.0000  0.0000  0.0000  0.0000  0.0000  0.0000  0.0000  0.0000  0.0000  0.0000
atom =  41  type =  2  l = 2
 
 onsite density matrix
 
spin component  1
 
  0.9926  0.0000  0.0000  0.0000  0.0000
  0.0000  0.9926  0.0000  0.0000  0.0000
  0.0000  0.0000  0.9926  0.0000  0.0000
  0.0000  0.0000  0.0000  0.9926  0.0000
  0.0000  0.0000  0.0000  0.0000  0.9926
 
spin component  2
 
  0.9926  0.0000  0.0000  0.0000  0.0000
  0.0000  0.9926  0.0000  0.0000  0.0000
  0.0000  0.0000  0.9926  0.0000  0.0000
  0.0000  0.0000  0.0000  0.9926  0.0000
  0.0000  0.0000  0.0000  0.0000  0.9926
 
 occupancies and eigenvectors
 
  o =  0.9926  v =  1.0000  0.0000  0.0000  0.0000  0.0000  0.0000  0.0000  0.0000  0.0000  0.0000      0.0000  0.0000  0.0000  0.0000  0.0000  0.0000  0.0000  0.0000  0.0000  0.0000
  o =  0.9926  v =  0.0000  1.0000  0.0000  0.0000  0.0000  0.0000  0.0000  0.0000  0.0000  0.0000      0.0000  0.0000  0.0000  0.0000  0.0000  0.0000  0.0000  0.0000  0.0000  0.0000
  o =  0.9926  v =  0.0000  0.0000  1.0000  0.0000  0.0000  0.0000  0.0000  0.0000  0.0000  0.0000      0.0000  0.0000  0.0000  0.0000  0.0000  0.0000  0.0000  0.0000  0.0000  0.0000
  o =  0.9926  v =  0.0000  0.0000  0.0000  0.0000 -1.0000  0.0000  0.0000  0.0000  0.0000  0.0000      0.0000  0.0000  0.0000  0.0000  0.0000  0.0000  0.0000  0.0000  0.0000  0.0000
  o =  0.9926  v =  0.0000  0.0000  0.0000 -1.0000  0.0000  0.0000  0.0000  0.0000  0.0000  0.0000      0.0000  0.0000  0.0000  0.0000  0.0000  0.0000  0.0000  0.0000  0.0000  0.0000
  o =  0.9926  v =  0.0000  0.0000  0.0000  0.0000  0.0000  1.0000  0.0000  0.0000  0.0000  0.0000      0.0000  0.0000  0.0000  0.0000  0.0000  0.0000  0.0000  0.0000  0.0000  0.0000
  o =  0.9926  v =  0.0000  0.0000  0.0000  0.0000  0.0000  0.0000  1.0000  0.0000  0.0000  0.0000      0.0000  0.0000  0.0000  0.0000  0.0000  0.0000  0.0000  0.0000  0.0000  0.0000
  o =  0.9926  v =  0.0000  0.0000  0.0000  0.0000  0.0000  0.0000  0.0000  1.0000  0.0000  0.0000      0.0000  0.0000  0.0000  0.0000  0.0000  0.0000  0.0000  0.0000  0.0000  0.0000
  o =  0.9926  v =  0.0000  0.0000  0.0000  0.0000  0.0000  0.0000  0.0000  0.0000  0.0000 -1.0000      0.0000  0.0000  0.0000  0.0000  0.0000  0.0000  0.0000  0.0000  0.0000  0.0000
  o =  0.9926  v =  0.0000  0.0000  0.0000  0.0000  0.0000  0.0000  0.0000  0.0000 -1.0000  0.0000      0.0000  0.0000  0.0000  0.0000  0.0000  0.0000  0.0000  0.0000  0.0000  0.0000
atom =  42  type =  2  l = 2
 
 onsite density matrix
 
spin component  1
 
  0.9926  0.0000  0.0000  0.0000  0.0000
  0.0000  0.9926  0.0000  0.0000  0.0000
  0.0000  0.0000  0.9926  0.0000  0.0000
  0.0000  0.0000  0.0000  0.9926  0.0000
  0.0000  0.0000  0.0000  0.0000  0.9926
 
spin component  2
 
  0.9926  0.0000  0.0000  0.0000  0.0000
  0.0000  0.9926  0.0000  0.0000  0.0000
  0.0000  0.0000  0.9926  0.0000  0.0000
  0.0000  0.0000  0.0000  0.9926  0.0000
  0.0000  0.0000  0.0000  0.0000  0.9926
 
 occupancies and eigenvectors
 
  o =  0.9926  v =  1.0000  0.0000  0.0000  0.0000  0.0000  0.0000  0.0000  0.0000  0.0000  0.0000      0.0000  0.0000  0.0000  0.0000  0.0000  0.0000  0.0000  0.0000  0.0000  0.0000
  o =  0.9926  v =  0.0000  1.0000  0.0000  0.0000  0.0000  0.0000  0.0000  0.0000  0.0000  0.0000      0.0000  0.0000  0.0000  0.0000  0.0000  0.0000  0.0000  0.0000  0.0000  0.0000
  o =  0.9926  v =  0.0000  0.0000  1.0000  0.0000  0.0000  0.0000  0.0000  0.0000  0.0000  0.0000      0.0000  0.0000  0.0000  0.0000  0.0000  0.0000  0.0000  0.0000  0.0000  0.0000
  o =  0.9926  v =  0.0000  0.0000  0.0000  0.0000 -1.0000  0.0000  0.0000  0.0000  0.0000  0.0000      0.0000  0.0000  0.0000  0.0000  0.0000  0.0000  0.0000  0.0000  0.0000  0.0000
  o =  0.9926  v =  0.0000  0.0000  0.0000 -1.0000  0.0000  0.0000  0.0000  0.0000  0.0000  0.0000      0.0000  0.0000  0.0000  0.0000  0.0000  0.0000  0.0000  0.0000  0.0000  0.0000
  o =  0.9926  v =  0.0000  0.0000  0.0000  0.0000  0.0000  1.0000  0.0000  0.0000  0.0000  0.0000      0.0000  0.0000  0.0000  0.0000  0.0000  0.0000  0.0000  0.0000  0.0000  0.0000
  o =  0.9926  v =  0.0000  0.0000  0.0000  0.0000  0.0000  0.0000  1.0000  0.0000  0.0000  0.0000      0.0000  0.0000  0.0000  0.0000  0.0000  0.0000  0.0000  0.0000  0.0000  0.0000
  o =  0.9926  v =  0.0000  0.0000  0.0000  0.0000  0.0000  0.0000  0.0000  1.0000  0.0000  0.0000      0.0000  0.0000  0.0000  0.0000  0.0000  0.0000  0.0000  0.0000  0.0000  0.0000
  o =  0.9926  v =  0.0000  0.0000  0.0000  0.0000  0.0000  0.0000  0.0000  0.0000  0.0000 -1.0000      0.0000  0.0000  0.0000  0.0000  0.0000  0.0000  0.0000  0.0000  0.0000  0.0000
  o =  0.9926  v =  0.0000  0.0000  0.0000  0.0000  0.0000  0.0000  0.0000  0.0000 -1.0000  0.0000      0.0000  0.0000  0.0000  0.0000  0.0000  0.0000  0.0000  0.0000  0.0000  0.0000
atom =  43  type =  2  l = 2
 
 onsite density matrix
 
spin component  1
 
  0.9926  0.0000  0.0000  0.0000  0.0000
  0.0000  0.9926  0.0000  0.0000  0.0000
  0.0000  0.0000  0.9926  0.0000  0.0000
  0.0000  0.0000  0.0000  0.9926  0.0000
  0.0000  0.0000  0.0000  0.0000  0.9926
 
spin component  2
 
  0.9926  0.0000  0.0000  0.0000  0.0000
  0.0000  0.9926  0.0000  0.0000  0.0000
  0.0000  0.0000  0.9926  0.0000  0.0000
  0.0000  0.0000  0.0000  0.9926  0.0000
  0.0000  0.0000  0.0000  0.0000  0.9926
 
 occupancies and eigenvectors
 
  o =  0.9926  v =  1.0000  0.0000  0.0000  0.0000  0.0000  0.0000  0.0000  0.0000  0.0000  0.0000      0.0000  0.0000  0.0000  0.0000  0.0000  0.0000  0.0000  0.0000  0.0000  0.0000
  o =  0.9926  v =  0.0000  1.0000  0.0000  0.0000  0.0000  0.0000  0.0000  0.0000  0.0000  0.0000      0.0000  0.0000  0.0000  0.0000  0.0000  0.0000  0.0000  0.0000  0.0000  0.0000
  o =  0.9926  v =  0.0000  0.0000  1.0000  0.0000  0.0000  0.0000  0.0000  0.0000  0.0000  0.0000      0.0000  0.0000  0.0000  0.0000  0.0000  0.0000  0.0000  0.0000  0.0000  0.0000
  o =  0.9926  v =  0.0000  0.0000  0.0000  0.0000 -1.0000  0.0000  0.0000  0.0000  0.0000  0.0000      0.0000  0.0000  0.0000  0.0000  0.0000  0.0000  0.0000  0.0000  0.0000  0.0000
  o =  0.9926  v =  0.0000  0.0000  0.0000 -1.0000  0.0000  0.0000  0.0000  0.0000  0.0000  0.0000      0.0000  0.0000  0.0000  0.0000  0.0000  0.0000  0.0000  0.0000  0.0000  0.0000
  o =  0.9926  v =  0.0000  0.0000  0.0000  0.0000  0.0000  1.0000  0.0000  0.0000  0.0000  0.0000      0.0000  0.0000  0.0000  0.0000  0.0000  0.0000  0.0000  0.0000  0.0000  0.0000
  o =  0.9926  v =  0.0000  0.0000  0.0000  0.0000  0.0000  0.0000  1.0000  0.0000  0.0000  0.0000      0.0000  0.0000  0.0000  0.0000  0.0000  0.0000  0.0000  0.0000  0.0000  0.0000
  o =  0.9926  v =  0.0000  0.0000  0.0000  0.0000  0.0000  0.0000  0.0000  1.0000  0.0000  0.0000      0.0000  0.0000  0.0000  0.0000  0.0000  0.0000  0.0000  0.0000  0.0000  0.0000
  o =  0.9926  v =  0.0000  0.0000  0.0000  0.0000  0.0000  0.0000  0.0000  0.0000  0.0000 -1.0000      0.0000  0.0000  0.0000  0.0000  0.0000  0.0000  0.0000  0.0000  0.0000  0.0000
  o =  0.9926  v =  0.0000  0.0000  0.0000  0.0000  0.0000  0.0000  0.0000  0.0000 -1.0000  0.0000      0.0000  0.0000  0.0000  0.0000  0.0000  0.0000  0.0000  0.0000  0.0000  0.0000
atom =  44  type =  2  l = 2
 
 onsite density matrix
 
spin component  1
 
  0.9926  0.0000  0.0000  0.0000  0.0000
  0.0000  0.9926  0.0000  0.0000  0.0000
  0.0000  0.0000  0.9926  0.0000  0.0000
  0.0000  0.0000  0.0000  0.9926  0.0000
  0.0000  0.0000  0.0000  0.0000  0.9926
 
spin component  2
 
  0.9926  0.0000  0.0000  0.0000  0.0000
  0.0000  0.9926  0.0000  0.0000  0.0000
  0.0000  0.0000  0.9926  0.0000  0.0000
  0.0000  0.0000  0.0000  0.9926  0.0000
  0.0000  0.0000  0.0000  0.0000  0.9926
 
 occupancies and eigenvectors
 
  o =  0.9926  v =  1.0000  0.0000  0.0000  0.0000  0.0000  0.0000  0.0000  0.0000  0.0000  0.0000      0.0000  0.0000  0.0000  0.0000  0.0000  0.0000  0.0000  0.0000  0.0000  0.0000
  o =  0.9926  v =  0.0000  1.0000  0.0000  0.0000  0.0000  0.0000  0.0000  0.0000  0.0000  0.0000      0.0000  0.0000  0.0000  0.0000  0.0000  0.0000  0.0000  0.0000  0.0000  0.0000
  o =  0.9926  v =  0.0000  0.0000  1.0000  0.0000  0.0000  0.0000  0.0000  0.0000  0.0000  0.0000      0.0000  0.0000  0.0000  0.0000  0.0000  0.0000  0.0000  0.0000  0.0000  0.0000
  o =  0.9926  v =  0.0000  0.0000  0.0000  0.0000 -1.0000  0.0000  0.0000  0.0000  0.0000  0.0000      0.0000  0.0000  0.0000  0.0000  0.0000  0.0000  0.0000  0.0000  0.0000  0.0000
  o =  0.9926  v =  0.0000  0.0000  0.0000 -1.0000  0.0000  0.0000  0.0000  0.0000  0.0000  0.0000      0.0000  0.0000  0.0000  0.0000  0.0000  0.0000  0.0000  0.0000  0.0000  0.0000
  o =  0.9926  v =  0.0000  0.0000  0.0000  0.0000  0.0000  1.0000  0.0000  0.0000  0.0000  0.0000      0.0000  0.0000  0.0000  0.0000  0.0000  0.0000  0.0000  0.0000  0.0000  0.0000
  o =  0.9926  v =  0.0000  0.0000  0.0000  0.0000  0.0000  0.0000  1.0000  0.0000  0.0000  0.0000      0.0000  0.0000  0.0000  0.0000  0.0000  0.0000  0.0000  0.0000  0.0000  0.0000
  o =  0.9926  v =  0.0000  0.0000  0.0000  0.0000  0.0000  0.0000  0.0000  1.0000  0.0000  0.0000      0.0000  0.0000  0.0000  0.0000  0.0000  0.0000  0.0000  0.0000  0.0000  0.0000
  o =  0.9926  v =  0.0000  0.0000  0.0000  0.0000  0.0000  0.0000  0.0000  0.0000  0.0000 -1.0000      0.0000  0.0000  0.0000  0.0000  0.0000  0.0000  0.0000  0.0000  0.0000  0.0000
  o =  0.9926  v =  0.0000  0.0000  0.0000  0.0000  0.0000  0.0000  0.0000  0.0000 -1.0000  0.0000      0.0000  0.0000  0.0000  0.0000  0.0000  0.0000  0.0000  0.0000  0.0000  0.0000
atom =  45  type =  2  l = 2
 
 onsite density matrix
 
spin component  1
 
  0.9926  0.0000  0.0000  0.0000  0.0000
  0.0000  0.9926  0.0000  0.0000  0.0000
  0.0000  0.0000  0.9926  0.0000  0.0000
  0.0000  0.0000  0.0000  0.9926  0.0000
  0.0000  0.0000  0.0000  0.0000  0.9926
 
spin component  2
 
  0.9926  0.0000  0.0000  0.0000  0.0000
  0.0000  0.9926  0.0000  0.0000  0.0000
  0.0000  0.0000  0.9926  0.0000  0.0000
  0.0000  0.0000  0.0000  0.9926  0.0000
  0.0000  0.0000  0.0000  0.0000  0.9926
 
 occupancies and eigenvectors
 
  o =  0.9926  v =  1.0000  0.0000  0.0000  0.0000  0.0000  0.0000  0.0000  0.0000  0.0000  0.0000      0.0000  0.0000  0.0000  0.0000  0.0000  0.0000  0.0000  0.0000  0.0000  0.0000
  o =  0.9926  v =  0.0000  1.0000  0.0000  0.0000  0.0000  0.0000  0.0000  0.0000  0.0000  0.0000      0.0000  0.0000  0.0000  0.0000  0.0000  0.0000  0.0000  0.0000  0.0000  0.0000
  o =  0.9926  v =  0.0000  0.0000  1.0000  0.0000  0.0000  0.0000  0.0000  0.0000  0.0000  0.0000      0.0000  0.0000  0.0000  0.0000  0.0000  0.0000  0.0000  0.0000  0.0000  0.0000
  o =  0.9926  v =  0.0000  0.0000  0.0000  0.0000 -1.0000  0.0000  0.0000  0.0000  0.0000  0.0000      0.0000  0.0000  0.0000  0.0000  0.0000  0.0000  0.0000  0.0000  0.0000  0.0000
  o =  0.9926  v =  0.0000  0.0000  0.0000 -1.0000  0.0000  0.0000  0.0000  0.0000  0.0000  0.0000      0.0000  0.0000  0.0000  0.0000  0.0000  0.0000  0.0000  0.0000  0.0000  0.0000
  o =  0.9926  v =  0.0000  0.0000  0.0000  0.0000  0.0000  1.0000  0.0000  0.0000  0.0000  0.0000      0.0000  0.0000  0.0000  0.0000  0.0000  0.0000  0.0000  0.0000  0.0000  0.0000
  o =  0.9926  v =  0.0000  0.0000  0.0000  0.0000  0.0000  0.0000  1.0000  0.0000  0.0000  0.0000      0.0000  0.0000  0.0000  0.0000  0.0000  0.0000  0.0000  0.0000  0.0000  0.0000
  o =  0.9926  v =  0.0000  0.0000  0.0000  0.0000  0.0000  0.0000  0.0000  1.0000  0.0000  0.0000      0.0000  0.0000  0.0000  0.0000  0.0000  0.0000  0.0000  0.0000  0.0000  0.0000
  o =  0.9926  v =  0.0000  0.0000  0.0000  0.0000  0.0000  0.0000  0.0000  0.0000  0.0000 -1.0000      0.0000  0.0000  0.0000  0.0000  0.0000  0.0000  0.0000  0.0000  0.0000  0.0000
  o =  0.9926  v =  0.0000  0.0000  0.0000  0.0000  0.0000  0.0000  0.0000  0.0000 -1.0000  0.0000      0.0000  0.0000  0.0000  0.0000  0.0000  0.0000  0.0000  0.0000  0.0000  0.0000
atom =  46  type =  2  l = 2
 
 onsite density matrix
 
spin component  1
 
  0.9926  0.0000  0.0000  0.0000  0.0000
  0.0000  0.9926  0.0000  0.0000  0.0000
  0.0000  0.0000  0.9926  0.0000  0.0000
  0.0000  0.0000  0.0000  0.9926  0.0000
  0.0000  0.0000  0.0000  0.0000  0.9926
 
spin component  2
 
  0.9926  0.0000  0.0000  0.0000  0.0000
  0.0000  0.9926  0.0000  0.0000  0.0000
  0.0000  0.0000  0.9926  0.0000  0.0000
  0.0000  0.0000  0.0000  0.9926  0.0000
  0.0000  0.0000  0.0000  0.0000  0.9926
 
 occupancies and eigenvectors
 
  o =  0.9926  v =  1.0000  0.0000  0.0000  0.0000  0.0000  0.0000  0.0000  0.0000  0.0000  0.0000      0.0000  0.0000  0.0000  0.0000  0.0000  0.0000  0.0000  0.0000  0.0000  0.0000
  o =  0.9926  v =  0.0000  1.0000  0.0000  0.0000  0.0000  0.0000  0.0000  0.0000  0.0000  0.0000      0.0000  0.0000  0.0000  0.0000  0.0000  0.0000  0.0000  0.0000  0.0000  0.0000
  o =  0.9926  v =  0.0000  0.0000  1.0000  0.0000  0.0000  0.0000  0.0000  0.0000  0.0000  0.0000      0.0000  0.0000  0.0000  0.0000  0.0000  0.0000  0.0000  0.0000  0.0000  0.0000
  o =  0.9926  v =  0.0000  0.0000  0.0000  0.0000 -1.0000  0.0000  0.0000  0.0000  0.0000  0.0000      0.0000  0.0000  0.0000  0.0000  0.0000  0.0000  0.0000  0.0000  0.0000  0.0000
  o =  0.9926  v =  0.0000  0.0000  0.0000 -1.0000  0.0000  0.0000  0.0000  0.0000  0.0000  0.0000      0.0000  0.0000  0.0000  0.0000  0.0000  0.0000  0.0000  0.0000  0.0000  0.0000
  o =  0.9926  v =  0.0000  0.0000  0.0000  0.0000  0.0000  1.0000  0.0000  0.0000  0.0000  0.0000      0.0000  0.0000  0.0000  0.0000  0.0000  0.0000  0.0000  0.0000  0.0000  0.0000
  o =  0.9926  v =  0.0000  0.0000  0.0000  0.0000  0.0000  0.0000  1.0000  0.0000  0.0000  0.0000      0.0000  0.0000  0.0000  0.0000  0.0000  0.0000  0.0000  0.0000  0.0000  0.0000
  o =  0.9926  v =  0.0000  0.0000  0.0000  0.0000  0.0000  0.0000  0.0000  1.0000  0.0000  0.0000      0.0000  0.0000  0.0000  0.0000  0.0000  0.0000  0.0000  0.0000  0.0000  0.0000
  o =  0.9926  v =  0.0000  0.0000  0.0000  0.0000  0.0000  0.0000  0.0000  0.0000  0.0000 -1.0000      0.0000  0.0000  0.0000  0.0000  0.0000  0.0000  0.0000  0.0000  0.0000  0.0000
  o =  0.9926  v =  0.0000  0.0000  0.0000  0.0000  0.0000  0.0000  0.0000  0.0000 -1.0000  0.0000      0.0000  0.0000  0.0000  0.0000  0.0000  0.0000  0.0000  0.0000  0.0000  0.0000
atom =  47  type =  2  l = 2
 
 onsite density matrix
 
spin component  1
 
  0.9926  0.0000  0.0000  0.0000  0.0000
  0.0000  0.9926  0.0000  0.0000  0.0000
  0.0000  0.0000  0.9926  0.0000  0.0000
  0.0000  0.0000  0.0000  0.9926  0.0000
  0.0000  0.0000  0.0000  0.0000  0.9926
 
spin component  2
 
  0.9926  0.0000  0.0000  0.0000  0.0000
  0.0000  0.9926  0.0000  0.0000  0.0000
  0.0000  0.0000  0.9926  0.0000  0.0000
  0.0000  0.0000  0.0000  0.9926  0.0000
  0.0000  0.0000  0.0000  0.0000  0.9926
 
 occupancies and eigenvectors
 
  o =  0.9926  v =  1.0000  0.0000  0.0000  0.0000  0.0000  0.0000  0.0000  0.0000  0.0000  0.0000      0.0000  0.0000  0.0000  0.0000  0.0000  0.0000  0.0000  0.0000  0.0000  0.0000
  o =  0.9926  v =  0.0000  1.0000  0.0000  0.0000  0.0000  0.0000  0.0000  0.0000  0.0000  0.0000      0.0000  0.0000  0.0000  0.0000  0.0000  0.0000  0.0000  0.0000  0.0000  0.0000
  o =  0.9926  v =  0.0000  0.0000  1.0000  0.0000  0.0000  0.0000  0.0000  0.0000  0.0000  0.0000      0.0000  0.0000  0.0000  0.0000  0.0000  0.0000  0.0000  0.0000  0.0000  0.0000
  o =  0.9926  v =  0.0000  0.0000  0.0000  0.0000 -1.0000  0.0000  0.0000  0.0000  0.0000  0.0000      0.0000  0.0000  0.0000  0.0000  0.0000  0.0000  0.0000  0.0000  0.0000  0.0000
  o =  0.9926  v =  0.0000  0.0000  0.0000 -1.0000  0.0000  0.0000  0.0000  0.0000  0.0000  0.0000      0.0000  0.0000  0.0000  0.0000  0.0000  0.0000  0.0000  0.0000  0.0000  0.0000
  o =  0.9926  v =  0.0000  0.0000  0.0000  0.0000  0.0000  1.0000  0.0000  0.0000  0.0000  0.0000      0.0000  0.0000  0.0000  0.0000  0.0000  0.0000  0.0000  0.0000  0.0000  0.0000
  o =  0.9926  v =  0.0000  0.0000  0.0000  0.0000  0.0000  0.0000  1.0000  0.0000  0.0000  0.0000      0.0000  0.0000  0.0000  0.0000  0.0000  0.0000  0.0000  0.0000  0.0000  0.0000
  o =  0.9926  v =  0.0000  0.0000  0.0000  0.0000  0.0000  0.0000  0.0000  1.0000  0.0000  0.0000      0.0000  0.0000  0.0000  0.0000  0.0000  0.0000  0.0000  0.0000  0.0000  0.0000
  o =  0.9926  v =  0.0000  0.0000  0.0000  0.0000  0.0000  0.0000  0.0000  0.0000  0.0000 -1.0000      0.0000  0.0000  0.0000  0.0000  0.0000  0.0000  0.0000  0.0000  0.0000  0.0000
  o =  0.9926  v =  0.0000  0.0000  0.0000  0.0000  0.0000  0.0000  0.0000  0.0000 -1.0000  0.0000      0.0000  0.0000  0.0000  0.0000  0.0000  0.0000  0.0000  0.0000  0.0000  0.0000
    EDDIAG:  cpu time    4.4117: real time    4.4309
  RMM-DIIS:  cpu time    2.0932: real time    2.0958
    ORTHCH:  cpu time    1.4667: real time    1.4688
       DOS:  cpu time    0.0132: real time    0.0132
    --------------------------------------------
      LOOP:  cpu time    8.1791: real time    8.2233

 eigenvalue-minimisations  :  2520
 total energy-change (2. order) : 0.7466110E+02  (-0.2350046E+05)
 number of electron     417.0000000 magnetization 
 augmentation part      417.0000000 magnetization 

 Free energy of the ion-electron system (eV)
  ---------------------------------------------------
  alpha Z        PSCENC =      1503.67097516
  Ewald energy   TEWEN  =    -33804.60865900
  -Hartree energ DENC   =    -10959.95215851
  -exchange      EXHF   =         0.00000000
  -V(xc)+E(xc)   XCENC  =      1832.52569883
  PAW double counting   =     36384.35422732   -36725.64007267
  entropy T*S    EENTRO =        -0.19506230
  eigenvalues    EBANDS =     -2507.73015674
  atomic energy  EATOM  =     44352.23631187
  Solvation  Ediel_sol  =         0.00000000
  ---------------------------------------------------
  free energy    TOTEN  =        74.66110396 eV

  energy without entropy =       74.85616626  energy(sigma->0) =       74.75863511


[...]
    184       4.7492      2.00000
    185       4.8251      2.00000
    186       4.8639      2.00000
    187       4.8883      2.00000
    188       4.9801      2.00000
    189       5.0393      2.00000
    190       5.0888      2.00000
    191       5.1177      2.00000
    192       5.1843      2.00000
    193       5.2137      2.00000
    194       5.2310      2.00000
    195       5.2748      2.00000
    196       5.3064      2.00000
    197       5.3441      2.00000
    198       5.3508      2.00000
    199       5.3785      2.00000
    200       5.4217      2.00000
    201       5.4992      2.00000
    202       5.5611      2.00000
    203       5.5855      2.00000
    204       5.6002      2.00000
    205       5.6388      2.00000
    206       5.7608      2.00000
    207       5.7711      2.00000
    208       5.9004      2.00000
    209       9.9810      0.00000
    210      10.5933      0.00000
    211      10.7706      0.00000
    212      11.0640      0.00000
    213      11.1809      0.00000
    214      11.4972      0.00000
    215      11.5679      0.00000
    216      11.7229      0.00000
    217      11.9826      0.00000
    218      12.2125      0.00000
    219      12.4062      0.00000
    220      12.4352      0.00000
    221      12.7975      0.00000
    222      12.8191      0.00000
    223      12.9141      0.00000
    224      13.2997      0.00000
    225      14.0805      0.00000
    226      14.3173      0.00000
    227      14.4630      0.00000
    228      14.5933      0.00000
    229      14.6640      0.00000
    230      14.7125      0.00000
    231      14.7831      0.00000
    232      14.8358      0.00000
    233      14.9506      0.00000
    234      15.0698      0.00000
    235      15.1281      0.00000
    236      15.2140      0.00000
    237      15.2493      0.00000
    238      15.5684      0.00000
    239      15.6362      0.00000
    240      15.6854      0.00000
    241      15.7746      0.00000
    242      15.8048      0.00000
    243      15.8489      0.00000
    244      15.9239      0.00000
    245      16.0198      0.00000
    246      16.0436      0.00000
    247      16.0802      0.00000
    248      16.2014      0.00000
    249      17.0586      0.00000
    250      17.1628      0.00000
    251      17.4178      0.00000
    252      17.5197      0.00000


--------------------------------------------------------------------------------------------------------


 soft charge-density along one line, spin component           1
         0         1         2         3         4         5         6         7         8         9
 total charge-density along one line
 
 pseudopotential strength for first ion, spin component:           1
 11.798 -14.326  -0.004  -0.002   0.011   0.005   0.002  -0.014
-14.326  17.410   0.005   0.002  -0.014  -0.006  -0.003   0.017
 -0.004   0.005  -7.817   0.000   0.055   9.258  -0.000  -0.074
 -0.002   0.002   0.000  -7.858   0.005  -0.000   9.314  -0.007
  0.011  -0.014   0.055   0.005  -7.821  -0.074  -0.007   9.263
  0.005  -0.006   9.258  -0.000  -0.074 -10.777   0.000   0.101
  0.002  -0.003  -0.000   9.314  -0.007   0.000 -10.853   0.009
 -0.014   0.017  -0.074  -0.007   9.263   0.101   0.009 -10.783
 total augmentation occupancy for first ion, spin component:           1
  2.637   0.389   0.017   0.005  -0.033   0.008   0.002  -0.015
  0.389   0.107   0.015   0.006  -0.035   0.005   0.001  -0.009
  0.017   0.015   2.148  -0.003  -0.015   0.244  -0.001  -0.061
  0.005   0.006  -0.003   2.104  -0.001  -0.001   0.279  -0.005
 -0.033  -0.035  -0.015  -0.001   2.154  -0.061  -0.005   0.249
  0.008   0.005   0.244  -0.001  -0.061   0.036  -0.000  -0.018
  0.002   0.001  -0.001   0.279  -0.005  -0.000   0.044  -0.002
 -0.015  -0.009  -0.061  -0.005   0.249  -0.018  -0.002   0.038


------------------------ aborting loop because EDIFF is reached ----------------------------------------


    CHARGE:  cpu time    0.7282: real time    0.7272
    FORLOC:  cpu time    0.0098: real time    0.0098
    FORNL :  cpu time    2.6923: real time    2.6916
    STRESS:  cpu time    3.1994: real time    3.1982
    FORCOR:  cpu time    0.0601: real time    0.0601
    FORHAR:  cpu time    0.0229: real time    0.0229
    MIXING:  cpu time    0.0015: real time    0.0020
    OFIELD:  cpu time    0.0003: real time    0.0003

  FORCE on cell =-STRESS in cart. coord.  units (eV):
  Direction    XX          YY          ZZ          XY          YZ          ZX
  --------------------------------------------------------------------------------------
  Alpha Z  1503.67098  1503.67098  1503.67098
  Ewald  -12999.04620-13000.97208 -7811.46916    74.15894    -0.00000     0.00000
  Hartree  2791.86222  2791.41643  5698.74583    40.43566    -0.00000    -0.00000
  E(xc)   -2130.06811 -2130.07167 -2124.86319    -0.06208    -0.00000    -0.00000
  Local    1699.60308  1701.84196 -6241.09102  -108.81079    -0.00000    -0.00000
  n-local    90.16039    89.96712   168.77155    -2.52844    -0.09775    -0.03884
  augment  3185.91625  3185.94482  3158.09901    -0.80015     0.00000     0.00000
  Kinetic  5868.21968  5868.67291  5661.83134     2.79993     0.43484     0.18565
  Fock        0.00000     0.00000     0.00000     0.00000     0.00000     0.00000
  -------------------------------------------------------------------------------------
  Total      10.31828    10.47046    13.69533     5.19307     0.00000     0.00000
  in kB      29.46912    29.90375    39.11401    14.83146     0.00000     0.00000
  external pressure =       32.83 kB  Pullay stress =        0.00 kB


 VOLUME and BASIS-vectors are now :
 -----------------------------------------------------------------------------
  energy-cutoff  :      480.00
  volume of cell :      560.98
      direct lattice vectors                 reciprocal lattice vectors
     9.432027167  0.000000000  0.000000000     0.106021747  0.000000000  0.000000000
     0.000000000  9.432027167  0.000000000     0.000000000  0.106021747  0.000000000
     0.000000000  0.000000000  6.305806843     0.000000000  0.000000000  0.158583989

  length of vectors
     9.432027167  9.432027167  6.305806843     0.106021747  0.106021747  0.158583989


 FORCES acting on ions
    electron-ion (+dipol)            ewald-force                    non-local-force                 convergence-correction
 -----------------------------------------------------------------------------------------------
   -.503E+02 0.292E+02 0.759E+01   0.547E+02 -.308E+02 -.835E+01   -.443E+01 0.162E+01 0.754E+00   0.514E-02 0.584E-02 0.252E-02
   0.461E+02 -.418E+02 -.199E+01   -.490E+02 0.438E+02 0.189E+01   0.298E+01 -.205E+01 0.972E-01   0.317E-03 -.161E-02 0.438E-03
   0.317E+02 -.370E+02 0.207E+01   -.342E+02 0.396E+02 -.217E+01   0.246E+01 -.261E+01 0.997E-01   0.690E-02 0.390E-02 0.253E-02
   0.362E+02 0.384E+02 0.407E-06   -.384E+02 -.407E+02 0.340E-15   0.224E+01 0.234E+01 0.200E-19   0.146E-02 0.143E-03 -.409E-10
   -.419E+02 -.322E+02 0.107E-05   0.445E+02 0.343E+02 0.594E-16   -.259E+01 -.209E+01 -.223E-19   0.264E-02 0.101E-02 0.350E-11
   0.304E+02 -.490E+02 -.840E+01   -.322E+02 0.532E+02 0.923E+01   0.179E+01 -.419E+01 -.831E+00   -.702E-02 -.785E-02 0.201E-02
   -.422E+02 0.457E+02 0.234E+01   0.443E+02 -.486E+02 -.226E+01   -.208E+01 0.294E+01 -.903E-01   -.170E-02 -.575E-02 0.116E-02
   0.319E+02 0.410E+02 -.714E-06   -.341E+02 -.433E+02 -.349E-14   0.220E+01 0.227E+01 -.210E-18   -.123E-04 -.988E-04 0.217E-12
   -.307E+02 -.420E+02 -.923E-06   0.327E+02 0.447E+02 0.103E-13   -.206E+01 -.261E+01 -.151E-19   0.616E-02 -.169E-02 -.471E-11
   -.429E+02 -.301E+02 -.813E-06   0.456E+02 0.321E+02 0.377E-14   -.271E+01 -.201E+01 -.209E-20   -.861E-03 0.573E-02 -.215E-11
   -.422E+02 0.457E+02 -.234E+01   0.443E+02 -.486E+02 0.226E+01   -.208E+01 0.294E+01 0.903E-01   -.170E-02 -.575E-02 -.116E-02
   0.337E+02 0.335E+02 0.208E-06   -.355E+02 -.353E+02 -.158E-13   0.178E+01 0.177E+01 0.186E-18   0.395E-03 -.509E-02 0.735E-11
   -.324E+02 -.318E+02 -.990E-06   0.324E+02 0.317E+02 -.429E-13   0.287E-01 0.110E+00 0.661E-19   -.113E-02 -.161E-02 0.952E-13
   0.317E+02 -.370E+02 -.207E+01   -.342E+02 0.396E+02 0.217E+01   0.246E+01 -.261E+01 -.997E-01   0.690E-02 0.390E-02 -.253E-02
   -.377E+02 0.312E+02 -.257E+01   0.403E+02 -.336E+02 0.270E+01   -.263E+01 0.240E+01 -.138E+00   0.108E-02 0.235E-02 -.620E-03
   0.321E+02 0.318E+02 0.387E-06   -.340E+02 -.337E+02 0.489E-14   0.188E+01 0.190E+01 0.410E-18   0.852E-03 -.330E-02 0.228E-11
   -.459E+02 -.453E+02 0.800E-06   0.486E+02 0.479E+02 0.219E-13   -.273E+01 -.258E+01 -.601E-21   0.156E-02 -.344E-02 -.625E-11
   0.304E+02 -.490E+02 0.840E+01   -.322E+02 0.532E+02 -.923E+01   0.179E+01 -.419E+01 0.831E+00   -.702E-02 -.785E-02 -.201E-02
   0.417E+02 0.310E+02 -.888E-06   -.442E+02 -.330E+02 -.732E-14   0.245E+01 0.204E+01 0.395E-19   0.326E-02 0.516E-02 -.464E-12
   -.377E+02 0.312E+02 0.257E+01   0.403E+02 -.336E+02 -.270E+01   -.263E+01 0.240E+01 0.138E+00   0.108E-02 0.235E-02 0.620E-03
   -.396E+02 -.385E+02 0.906E-06   0.438E+02 0.426E+02 -.235E-13   -.424E+01 -.408E+01 -.886E-19   -.347E-02 -.559E-02 -.863E-11
   -.503E+02 0.292E+02 -.759E+01   0.547E+02 -.308E+02 0.835E+01   -.443E+01 0.162E+01 -.754E+00   0.514E-02 0.584E-02 -.252E-02
   0.461E+02 -.418E+02 0.199E+01   -.490E+02 0.438E+02 -.189E+01   0.298E+01 -.205E+01 -.972E-01   0.317E-03 -.161E-02 -.438E-03
   -.330E+02 -.411E+02 0.931E-06   0.352E+02 0.435E+02 -.186E-13   -.224E+01 -.243E+01 0.263E-18   0.241E-02 0.135E-02 -.146E-11
   0.577E+02 0.564E+02 0.126E-05   -.617E+02 -.602E+02 0.256E-13   0.395E+01 0.376E+01 -.418E-18   0.409E-03 -.247E-02 -.254E-11
   0.391E+02 0.355E+02 0.317E-06   -.416E+02 -.377E+02 -.226E-13   0.244E+01 0.220E+01 0.517E-19   0.884E-02 -.416E-02 0.154E-10
   -.199E+02 0.369E+02 0.429E+01   0.202E+02 -.387E+02 -.446E+01   -.278E+00 0.181E+01 0.175E+00   0.338E-02 0.354E-02 0.246E-02
   0.379E+02 -.191E+02 -.495E+01   -.399E+02 0.192E+02 0.516E+01   0.197E+01 -.119E+00 -.216E+00   -.805E-02 -.535E-02 0.189E-02
   -.199E+02 0.369E+02 -.429E+01   0.202E+02 -.387E+02 0.446E+01   -.278E+00 0.181E+01 -.175E+00   0.338E-02 0.354E-02 -.246E-02
   -.402E+02 -.393E+02 -.102E-05   0.443E+02 0.434E+02 0.305E-14   -.416E+01 -.410E+01 -.192E-18   -.156E-02 -.196E-02 0.237E-11
   0.379E+02 -.191E+02 0.495E+01   -.399E+02 0.192E+02 -.516E+01   0.197E+01 -.119E+00 0.216E+00   -.805E-02 -.535E-02 -.189E-02
   -.118E+02 -.120E+02 0.196E-05   0.120E+02 0.123E+02 0.641E-14   -.244E+00 -.260E+00 -.225E-19   -.404E-02 -.324E-02 -.176E-10
   -.770E+01 -.892E+01 0.783E+01   0.759E+01 0.878E+01 -.795E+01   0.109E+00 0.136E+00 0.117E+00   0.303E-02 0.348E-02 0.137E-02
   0.189E+02 0.200E+02 0.348E+02   -.164E+02 -.175E+02 -.307E+02   -.250E+01 -.249E+01 -.407E+01   -.495E-02 -.388E-04 0.322E-02
   -.852E+01 -.806E+01 0.205E-05   0.807E+01 0.762E+01 0.159E-13   0.453E+00 0.439E+00 0.951E-19   0.217E-02 0.205E-02 0.383E-12
   -.770E+01 -.892E+01 -.783E+01   0.759E+01 0.878E+01 0.795E+01   0.109E+00 0.136E+00 -.117E+00   0.303E-02 0.348E-02 -.137E-02
   -.682E+01 0.374E+01 -.193E-05   0.606E+01 -.312E+01 -.143E-14   0.749E+00 -.625E+00 -.643E-19   0.391E-02 -.322E-03 0.601E-11
   0.189E+02 0.200E+02 -.348E+02   -.164E+02 -.175E+02 0.307E+02   -.250E+01 -.249E+01 0.407E+01   -.495E-02 -.388E-04 -.322E-02
   0.124E+02 -.815E+01 0.493E+01   -.121E+02 0.798E+01 -.481E+01   -.357E+00 0.167E+00 -.116E+00   0.312E-03 0.177E-02 0.371E-03
   -.861E+01 0.120E+02 0.478E+01   0.843E+01 -.116E+02 -.467E+01   0.171E+00 -.350E+00 -.107E+00   -.860E-03 -.400E-02 -.841E-03
   0.276E+01 -.774E+01 -.208E-05   -.214E+01 0.696E+01 -.516E-13   -.616E+00 0.781E+00 -.349E-18   -.342E-02 -.569E-03 0.319E-11
   -.558E+01 0.369E+01 -.105E-05   0.511E+01 -.337E+01 -.512E-13   0.460E+00 -.326E+00 0.187E-19   0.391E-02 0.594E-03 0.148E-10
   0.124E+02 -.815E+01 -.493E+01   -.121E+02 0.798E+01 0.481E+01   -.357E+00 0.167E+00 0.116E+00   0.312E-03 0.177E-02 -.371E-03
   -.861E+01 0.120E+02 -.478E+01   0.843E+01 -.116E+02 0.467E+01   0.171E+00 -.350E+00 0.107E+00   -.860E-03 -.400E-02 0.841E-03
   0.311E+01 -.698E+01 -.108E-05   -.281E+01 0.650E+01 -.506E-14   -.301E+00 0.478E+00 -.763E-19   -.240E-02 -.171E-02 -.151E-10
   0.888E+01 0.889E+01 0.224E-05   -.749E+01 -.751E+01 0.131E-14   -.139E+01 -.138E+01 0.785E-18   -.211E-02 0.223E-03 0.904E-11
   -.881E+01 -.812E+01 -.113E-06   0.472E+01 0.399E+01 0.364E-13   0.410E+01 0.412E+01 -.543E-19   -.238E-02 0.263E-02 0.961E-12
   0.415E+02 0.402E+02 -.131E-05   -.447E+02 -.431E+02 -.155E-14   0.315E+01 0.283E+01 -.177E-18   -.368E-01 0.377E-01 -.468E-10
 -----------------------------------------------------------------------------------------------
   0.302E+01 0.288E+01 -.359E-06   0.384E-12 -.995E-13 -.113E-12   -.299E+01 -.290E+01 0.144E-16   -.251E-01 0.139E-01 -.616E-10
 
 
 POSITION                                       TOTAL-FORCE (eV/Angst)
 -----------------------------------------------------------------------------------
      0.92609      8.54293      4.74970        -0.005700     -0.006672     -0.003011
      3.79588      5.62842      4.73061        -0.001698      0.001187      0.000633
      8.50922      5.62839      4.72577        -0.001825     -0.001671     -0.001754
      6.15555      1.43531     -0.00000         0.001073     -0.000298     -0.000000
      7.99401      3.27266     -0.00000        -0.002547     -0.000652     -0.000000
      8.53217      0.92319      1.55830         0.006867      0.005508     -0.002002
      5.62709      3.80020      1.57429         0.001454      0.002914     -0.000324
      6.14779      1.44189      3.15290         0.004578     -0.004349     -0.000000
      3.26228      7.99816      3.15290        -0.002564      0.000524     -0.000000
      7.99681      3.26392      3.15290        -0.001247     -0.002159     -0.000000
      5.62709      3.80020      4.73152         0.001454      0.002914      0.000324
      6.14961      6.15408     -0.00000        -0.000849      0.003522     -0.000000
      7.94166      7.94319     -0.00000         0.000796      0.001691     -0.000000
      8.50922      5.62839      1.58004        -0.001825     -0.001671      0.001754
      5.62579      8.51454      1.58134         0.001340      0.000278     -0.000815
      6.15842      6.16130      3.15290        -0.001413      0.003641     -0.000000
      7.99400      7.99187      3.15290        -0.003486      0.004982     -0.000000
      8.53217      0.92319      4.74751         0.006867      0.005508      0.002002
      1.43360      6.15861      3.15290        -0.000509     -0.007626     -0.000000
      5.62579      8.51454      4.72447         0.001340      0.000278      0.000815
      3.32789      3.32715      3.15290        -0.004949     -0.001242     -0.000000
      0.92609      8.54293      1.55610        -0.005700     -0.006672      0.003011
      3.79588      5.62842      1.57520        -0.001698      0.001187     -0.000633
      3.27483      7.99214     -0.00000        -0.006209      0.002686     -0.000000
      1.46395      1.47415      3.15290         0.006032     -0.002228     -0.000000
      1.43038      6.16236     -0.00000        -0.004431     -0.000338     -0.000000
      0.92290      3.77761      1.56440        -0.002268     -0.004525     -0.001316
      3.76670      0.92225      4.74271         0.007432      0.003828     -0.001428
      0.92290      3.77761      4.74141        -0.002268     -0.004525      0.001316
      3.25657      3.25886     -0.00000        -0.000641     -0.000754     -0.000000
      3.76670      0.92225      1.56309         0.007432      0.003828      0.001428
      4.74733      4.74936      3.15290         0.003973      0.005925     -0.000000
      7.05624      7.05995      4.71916         0.001047      0.001692     -0.002275
      2.42362      2.42866      1.63009         0.004076      0.003619     -0.006158
      0.01028      0.01205      3.15290        -0.001213      0.000428     -0.000000
      7.05624      7.05995      1.58665         0.001047      0.001692      0.002275
     -0.00444      4.71324      3.15290        -0.002222     -0.003596     -0.000000
      2.42362      2.42866      4.67572         0.004076      0.003619      0.006158
      2.35875      7.07364      4.73120        -0.002813     -0.001828      0.001245
      7.06974      2.36114      4.73085        -0.002229      0.000463      0.003774
      4.70644      0.00030      3.15290         0.000512     -0.003098     -0.000000
     -0.01074      4.72383     -0.00000        -0.004342     -0.000246     -0.000000
      2.35875      7.07364      1.57461        -0.002813     -0.001828     -0.001245
      7.06974      2.36114      1.57496        -0.002229      0.000463     -0.003774
      4.71984     -0.00800     -0.00000        -0.001248     -0.001747     -0.000000
      4.72357      4.72671     -0.00000        -0.000012      0.002612     -0.000000
     -0.10816     -0.10286     -0.00000         0.005799      0.000776     -0.000000
      1.41040      1.42683     -0.00000         0.003753     -0.008039     -0.000000
 -----------------------------------------------------------------------------------
    total drift:                                0.005956      0.000060     -0.000000


--------------------------------------------------------------------------------------------------------



  FREE ENERGIE OF THE ION-ELECTRON SYSTEM (eV)
  ---------------------------------------------------
  free  energy   TOTEN  =      -311.20931972 eV

  energy  without entropy=     -311.20910891  energy(sigma->0) =     -311.20921431
 
 d Force = 0.1003478E-03[ 0.830E-04, 0.118E-03]  d Energy = 0.1078585E-03-0.751E-05
 d Force = 0.2968650E-01[ 0.301E-01, 0.293E-01]  d Ewald  = 0.2968885E-01-0.235E-05


--------------------------------------------------------------------------------------------------------


    POTLOK:  cpu time    0.1689: real time    0.1688


--------------------------------------------------------------------------------------------------------


 stress matrix after NEB project (eV)
     10.31828      5.19307      0.00000
      5.19307     10.47046      0.00000
      0.00000      0.00000     13.69533
  FORCES: max atom, RMS     0.009278    0.005307
  FORCE total and by dimension    0.036767    0.008039
  Stress total and by dimension   21.391483   13.695331
 Quasi-Newton relaxation of ions (Broydens 2nd method)
  g(Force)  = 0.652E-04   g(Stress)= 0.000E+00

 retain information from N=  4 steps
 eigenvalues of (default step * inverse Hessian matrix)
  average eigenvalue of G=   3.9412
 eigenvalue spectrum of G is  7.1108  7.1108  0.7716  0.7716


--------------------------------------------------------------------------------------------------------


  
 reached required accuracy - stopping structural energy minimisation
 writing wavefunctions
     LOOP+:  cpu time   50.7069: real time   50.8257
    4ORBIT:  cpu time    0.0000: real time    0.0000

 total amount of memory used by VASP MPI-rank0    36613. kBytes
=======================================================================

   base      :      30000. kBytes
   nonl-proj :       1078. kBytes
   fftplans  :       2038. kBytes
   grid      :       1144. kBytes
   one-center:         15. kBytes
   wavefun   :       2338. kBytes
 
  
  
 General timing and accounting informations for this job:
 ========================================================
  
                  Total CPU time used (sec):     1045.492
                            User time (sec):      753.441
                          System time (sec):      292.050
                         Elapsed time (sec):     1053.812
  
                   Maximum memory used (kb):      144316.
                   Average memory used (kb):           0.
  
                          Minor page faults:       858391
                          Major page faults:           45
                 Voluntary context switches:         7810
