 running on   32 total cores
 distrk:  each k-point on   32 cores,    1 groups
 distr:  one band on    8 cores,    4 groups
 using from now: INCAR     
 vasp.5.4.1 05Feb16 (build Dec 31 2016 05:41:53) complex                        
  
 POSCAR found type information on POSCAR  O  Sn H 
 POSCAR found :  3 types and      48 ions
 scaLAPACK will be used

 ----------------------------------------------------------------------------- 
|                                                                             |
|  ADVICE TO THIS USER RUNNING 'VASP/VAMP'   (HEAR YOUR MASTER'S VOICE ...):  |
|                                                                             |
|      You have a (more or less) 'large supercell' and for larger cells       |
|      it might be more efficient to use real space projection opertators     |
|      So try LREAL= Auto  in the INCAR   file.                               |
|      Mind: At the moment your POTCAR file does not contain real space       |
|       projectors, and has to be modified,  BUT if you                       |
|      want to do an extremely  accurate calculation you might also keep the  |
|      reciprocal projection scheme          (i.e. LREAL=.FALSE.)             |
|                                                                             |
 ----------------------------------------------------------------------------- 

 LDA part: xc-table for Pade appr. of Perdew
 POSCAR, INCAR and KPOINTS ok, starting setup
 FFT: planning ...
 WAVECAR not read
 entering main loop
       N       E                     dE             d eps       ncg     rms          rms(c)
RMM:   1     0.109428621988E+02    0.10943E+02   -0.22751E+05  1952   0.233E+03
RMM:   2     0.534546119069E+03    0.52360E+03   -0.44248E+04  1952   0.429E+02
RMM:   3    -0.114455266339E+03   -0.64900E+03   -0.12382E+04  1952   0.207E+02
RMM:   4    -0.275822653326E+03   -0.16137E+03   -0.48176E+03  4731   0.157E+02
RMM:   5    -0.336388853800E+03   -0.60566E+02   -0.59618E+02  5036   0.392E+01    0.394E+01
RMM:   6    -0.299878333004E+03    0.36511E+02   -0.17937E+02  4673   0.248E+01    0.170E+01
RMM:   7    -0.302563827102E+03   -0.26855E+01   -0.40623E+01  4892   0.945E+00    0.141E+01
RMM:   8    -0.302274197436E+03    0.28963E+00   -0.82367E+00  4858   0.401E+00    0.950E+00
RMM:   9    -0.301626218639E+03    0.64798E+00   -0.25884E+00  4658   0.325E+00    0.426E+00
RMM:  10    -0.301649337997E+03   -0.23119E-01   -0.47289E-01  4675   0.169E+00    0.150E+00
RMM:  11    -0.301617603985E+03    0.31734E-01   -0.17238E-01  4672   0.829E-01    0.426E-01
RMM:  12    -0.301622166508E+03   -0.45625E-02   -0.22769E-02  4878   0.279E-01    0.406E-01
RMM:  13    -0.301625986481E+03   -0.38200E-02   -0.84819E-03  4556   0.174E-01    0.741E-01
RMM:  14    -0.301622585887E+03    0.34006E-02   -0.16878E-03  3961   0.837E-02    0.128E-01
RMM:  15    -0.301622867524E+03   -0.28164E-03   -0.36627E-04  3430   0.386E-02    0.202E-01
RMM:  16    -0.301622632337E+03    0.23519E-03   -0.24634E-04  2749   0.291E-02    0.272E-02
RMM:  17    -0.301622656830E+03   -0.24493E-04   -0.71925E-05  2320   0.196E-02
   1 F= -.30162266E+03 E0= -.30156651E+03  d E =-.301623E+03
 BRION: g(F)=  0.294E+00 g(S)=  0.000E+00
 bond charge predicted
       N       E                     dE             d eps       ncg     rms          rms(c)
RMM:   1    -0.301125705809E+03    0.49693E+00   -0.70406E+01  1952   0.170E+01
RMM:   2    -0.302347755000E+03   -0.12220E+01   -0.15101E+01  1952   0.793E+00
RMM:   3    -0.362634126391E+03   -0.60286E+02   -0.37101E+02  1952   0.212E+01
RMM:   4    -0.112605209452E+03    0.25003E+03   -0.64306E+03  4813   0.976E+01
RMM:   5    -0.220841513548E+03   -0.10824E+03   -0.66263E+02  5232   0.231E+01    0.105E+01
RMM:   6    -0.257016941384E+03   -0.36175E+02   -0.21467E+02  4718   0.149E+01    0.486E+00
RMM:   7    -0.279204057521E+03   -0.22187E+02   -0.13650E+02  4790   0.749E+00    0.414E+00
RMM:   8    -0.289772407374E+03   -0.10568E+02   -0.64660E+01  4772   0.525E+00    0.265E+00
RMM:   9    -0.297358496988E+03   -0.75861E+01   -0.43209E+01  4807   0.371E+00    0.253E+00
RMM:  10    -0.298837349222E+03   -0.14789E+01   -0.13063E+01  4789   0.253E+00    0.201E+00
RMM:  11    -0.299891759751E+03   -0.10544E+01   -0.49526E+00  4856   0.127E+00    0.238E+00
RMM:  12    -0.300606028764E+03   -0.71427E+00   -0.67231E+00  4812   0.108E+00    0.250E+00
RMM:  13    -0.301477756038E+03   -0.87173E+00   -0.52185E+00  3970   0.923E-01    0.328E+00
RMM:  14    -0.301817332081E+03   -0.33958E+00   -0.26230E+00  4056   0.545E-01    0.361E+00
RMM:  15    -0.301993299401E+03   -0.17597E+00   -0.14946E+00  4503   0.367E-01    0.375E+00
RMM:  16    -0.302057918479E+03   -0.64619E-01   -0.54109E-01  4055   0.209E-01    0.381E+00
RMM:  17    -0.302097766244E+03   -0.39848E-01   -0.79936E-01  3371   0.132E-01    0.379E+00
RMM:  18    -0.301965963306E+03    0.13180E+00   -0.11135E-01  4690   0.319E-01    0.319E+00
RMM:  19    -0.301874492517E+03    0.91471E-01   -0.66088E-02  4681   0.347E-01    0.255E+00
RMM:  20    -0.301886967880E+03   -0.12475E-01   -0.19485E-02  4630   0.221E-01    0.263E+00
RMM:  21    -0.301889707897E+03   -0.27400E-02   -0.12989E-02  4629   0.208E-01    0.273E+00
RMM:  22    -0.301852580830E+03    0.37127E-01   -0.75019E-03  4566   0.146E-01    0.249E+00
RMM:  23    -0.301823803298E+03    0.28778E-01   -0.39390E-03  4615   0.118E-01    0.229E+00
RMM:  24    -0.301814209723E+03    0.95936E-02   -0.12502E-03  3984   0.596E-02    0.220E+00
RMM:  25    -0.301808941794E+03    0.52679E-02   -0.28999E-04  3021   0.290E-02    0.214E+00
RMM:  26    -0.301805523801E+03    0.34180E-02   -0.11723E-04  2421   0.237E-02    0.211E+00
RMM:  27    -0.301752627800E+03    0.52896E-01   -0.99924E-03  4448   0.141E-01    0.142E+00
RMM:  28    -0.301746180629E+03    0.64472E-02   -0.18912E-03  4089   0.626E-02    0.127E+00
RMM:  29    -0.301744372880E+03    0.18077E-02   -0.21246E-04  2920   0.295E-02    0.123E+00
RMM:  30    -0.301722972155E+03    0.21401E-01   -0.66396E-03  4426   0.116E-01    0.540E-01
RMM:  31    -0.301721842856E+03    0.11293E-02   -0.88660E-04  3748   0.450E-02    0.436E-01
RMM:  32    -0.301719299189E+03    0.25437E-02   -0.86880E-04  3834   0.490E-02    0.242E-01
RMM:  33    -0.301719952065E+03   -0.65288E-03   -0.35433E-03  4163   0.845E-02    0.352E-01
RMM:  34    -0.301720216407E+03   -0.26434E-03   -0.46989E-04  3540   0.361E-02    0.387E-01
RMM:  35    -0.301719365531E+03    0.85088E-03   -0.96471E-05  2432   0.201E-02    0.295E-01
RMM:  36    -0.301718493880E+03    0.87165E-03   -0.35015E-04  3115   0.321E-02    0.131E-01
RMM:  37    -0.301718346032E+03    0.14785E-03   -0.12627E-04  2619   0.210E-02    0.662E-02
RMM:  38    -0.301718368129E+03   -0.22098E-04   -0.58581E-05  2373   0.164E-02
   2 F= -.30171837E+03 E0= -.30166216E+03  d E =-.957113E-01
 BRION: g(F)=  0.101E+00 g(S)=  0.000E+00 retain N=  1 mean eig= 0.65
 eig:   0.653
 bond charge predicted
       N       E                     dE             d eps       ncg     rms          rms(c)
RMM:   1    -0.301754568256E+03   -0.36222E-01   -0.12298E+01  1952   0.732E+00
RMM:   2    -0.301825417748E+03   -0.70849E-01   -0.15226E+00  1952   0.255E+00
RMM:   3    -0.307095246380E+03   -0.52698E+01    0.12945E+01  1952   0.352E+00
RMM:   4    -0.273211991215E+03    0.33883E+02   -0.16960E+03  4775   0.491E+01
RMM:   5    -0.293929355819E+03   -0.20717E+02   -0.46677E+01  4798   0.679E+00    0.490E+00
RMM:   6    -0.297941725565E+03   -0.40124E+01   -0.44767E+01  4728   0.617E+00    0.416E+00
RMM:   7    -0.298264738936E+03   -0.32301E+00   -0.78054E+00  4723   0.201E+00    0.243E+00
RMM:   8    -0.298743215567E+03   -0.47848E+00   -0.47997E+00  4686   0.122E+00    0.151E+00
RMM:   9    -0.300240265915E+03   -0.14971E+01   -0.79776E+00  4664   0.873E-01    0.166E+00
RMM:  10    -0.300427304543E+03   -0.18704E+00   -0.21630E+00  4599   0.503E-01    0.129E+00
RMM:  11    -0.300391259979E+03    0.36045E-01   -0.10566E-01  4602   0.270E-01    0.697E-01
RMM:  12    -0.300388965415E+03    0.22946E-02   -0.40640E-02  4708   0.157E-01    0.450E-01
RMM:  13    -0.300393306566E+03   -0.43412E-02   -0.66592E-02  4492   0.134E-01    0.180E-01
RMM:  14    -0.300841502178E+03   -0.44820E+00   -0.24874E-01  3865   0.141E-01    0.950E-01
RMM:  15    -0.302135037488E+03   -0.12935E+01   -0.13137E+01  2773   0.668E-01    0.919E-01
RMM:  16    -0.301762770384E+03    0.37227E+00   -0.11061E-01  2467   0.992E-02    0.897E-01
RMM:  17    -0.301763797546E+03   -0.10272E-02   -0.93255E-03  2429   0.292E-02    0.905E-01
RMM:  18    -0.301763571790E+03    0.22576E-03   -0.12845E-04  2368   0.196E-02    0.903E-01
RMM:  19    -0.301764470351E+03   -0.89856E-03   -0.17954E-04  2621   0.251E-02    0.948E-01
RMM:  20    -0.301764278256E+03    0.19209E-03   -0.13012E-04  2414   0.208E-02    0.970E-01
RMM:  21    -0.301764114553E+03    0.16370E-03   -0.62867E-05  2079   0.153E-02    0.954E-01
RMM:  22    -0.301765455773E+03   -0.13412E-02   -0.16516E-03  4052   0.767E-02    0.117E+00
RMM:  23    -0.301764524494E+03    0.93128E-03   -0.68905E-05  2291   0.210E-02    0.111E+00
RMM:  24    -0.301765149745E+03   -0.62525E-03   -0.20690E-04  2713   0.257E-02    0.119E+00
RMM:  25    -0.301765132241E+03    0.17504E-04   -0.14489E-05  2263   0.175E-02
   3 F= -.30176513E+03 E0= -.30171135E+03  d E =-.467641E-01
 BRION: g(F)=  0.285E-01 g(S)=  0.000E+00 retain N=  2 mean eig= 0.29
 eig:   0.479  0.094
 bond charge predicted
       N       E                     dE             d eps       ncg     rms          rms(c)
RMM:   1    -0.301778337906E+03   -0.13188E-01   -0.26177E+00  1952   0.314E+00
RMM:   2    -0.301788683857E+03   -0.10346E-01   -0.19844E-01  1952   0.102E+00
RMM:   3    -0.302056698264E+03   -0.26801E+00    0.47743E-01  1952   0.889E-01
RMM:   4    -0.298122782859E+03    0.39339E+01   -0.18256E+02  4621   0.147E+01
RMM:   5    -0.299955376438E+03   -0.18326E+01   -0.61048E+00  4126   0.158E+00    0.181E+00
RMM:   6    -0.301400196284E+03   -0.14448E+01   -0.13888E+01  4655   0.210E+00    0.504E+00
RMM:   7    -0.300980821870E+03    0.41937E+00   -0.95779E-01  4564   0.775E-01    0.165E+00
RMM:   8    -0.300962252688E+03    0.18569E-01   -0.62664E-02  4385   0.245E-01    0.112E+00
RMM:   9    -0.300950497889E+03    0.11755E-01   -0.17181E-02  4310   0.159E-01    0.613E-01
RMM:  10    -0.301828164130E+03   -0.87767E+00   -0.55079E-02  4384   0.147E-01    0.826E-01
RMM:  11    -0.301759531847E+03    0.68632E-01   -0.18814E+00  3820   0.189E-01    0.748E-01
RMM:  12    -0.301759556687E+03   -0.24840E-04   -0.56911E-02  3298   0.478E-02    0.657E-01
RMM:  13    -0.301752815605E+03    0.67411E-02   -0.12538E-02  4471   0.153E-01    0.233E-01
RMM:  14    -0.301752683393E+03    0.13221E-03   -0.94047E-04  3837   0.574E-02    0.127E-01
RMM:  15    -0.301752592924E+03    0.90470E-04   -0.12248E-04  2417   0.258E-02
   4 F= -.30175259E+03 E0= -.30169755E+03  d E =0.125393E-01
 BRION: g(F)=  0.117E-01 g(S)=  0.000E+00 retain N=  3 mean eig= 0.97
 eig:   2.078  0.506  0.314
 bond charge predicted
       N       E                     dE             d eps       ncg     rms          rms(c)
RMM:   1    -0.301749710402E+03    0.29730E-02   -0.15991E+00  1952   0.261E+00
RMM:   2    -0.302322318026E+03   -0.57261E+00   -0.13779E-01  1952   0.868E-01
RMM:   3    -0.303523601004E+03   -0.12013E+01   -0.54372E+01  1952   0.970E-01
RMM:   4    -0.299875046463E+03    0.36486E+01   -0.28225E+02  4674   0.172E+01
RMM:   5    -0.302745084392E+03   -0.28700E+01   -0.12501E+01  4067   0.192E+00    0.123E+00
RMM:   6    -0.301258250016E+03    0.14868E+01   -0.44447E+00  4640   0.146E+00    0.168E+00
RMM:   7    -0.301430967354E+03   -0.17272E+00   -0.10959E-01  4461   0.405E-01    0.904E-01
RMM:   8    -0.301295044650E+03    0.13592E+00   -0.21314E-01  4103   0.177E-01    0.391E-01
RMM:   9    -0.301599191790E+03   -0.30415E+00   -0.19865E-02  4069   0.112E-01    0.558E-01
RMM:  10    -0.301762469477E+03   -0.16328E+00   -0.17769E+00  3913   0.169E-01    0.658E-01
RMM:  11    -0.301753452286E+03    0.90172E-02   -0.92686E-01  3751   0.102E-01    0.510E-01
RMM:  12    -0.301760352827E+03   -0.69005E-02   -0.99112E-02  3413   0.486E-02    0.402E-01
RMM:  13    -0.301757980457E+03    0.23724E-02   -0.25449E-03  3796   0.513E-02    0.176E-01
RMM:  14    -0.301757659261E+03    0.32120E-03   -0.70734E-04  3403   0.384E-02    0.482E-02
RMM:  15    -0.301757705856E+03   -0.46594E-04   -0.21820E-04  2776   0.250E-02
   5 F= -.30175771E+03 E0= -.30170282E+03  d E =-.511293E-02
 BRION: g(F)=  0.269E-02 g(S)=  0.000E+00 retain N=  4 mean eig= 1.31
 eig:   2.053  2.053  0.570  0.570
 bond charge predicted
       N       E                     dE             d eps       ncg     rms          rms(c)
RMM:   1    -0.301756115874E+03    0.15434E-02   -0.55730E-01  1952   0.149E+00
RMM:   2    -0.301759511404E+03   -0.33955E-02   -0.41324E-02  1952   0.478E-01
RMM:   3    -0.303115976567E+03   -0.13565E+01   -0.10271E-02  1952   0.337E-01
RMM:   4    -0.300592511717E+03    0.25235E+01   -0.27873E+02  4364   0.747E+00
RMM:   5    -0.301059702454E+03   -0.46719E+00   -0.27465E-01  3520   0.371E-01    0.107E+00
RMM:   6    -0.301606549617E+03   -0.54685E+00   -0.18917E+00  4572   0.809E-01    0.223E+00
RMM:   7    -0.301768633903E+03   -0.16208E+00   -0.33431E+00  4474   0.604E-01    0.932E-01
RMM:   8    -0.301765689343E+03    0.29446E-02   -0.10342E-01  4154   0.157E-01    0.768E-01
RMM:   9    -0.301761494693E+03    0.41947E-02   -0.99788E-03  4008   0.953E-02    0.347E-01
RMM:  10    -0.301760376891E+03    0.11178E-02   -0.75414E-04  3737   0.414E-02    0.225E-01
RMM:  11    -0.301759931608E+03    0.44528E-03   -0.22131E-04  2594   0.263E-02    0.161E-01
RMM:  12    -0.301759533507E+03    0.39810E-03   -0.35318E-04  3243   0.326E-02    0.587E-02
RMM:  13    -0.301759496045E+03    0.37462E-04   -0.12980E-04  2380   0.212E-02
   6 F= -.30175950E+03 E0= -.30170459E+03  d E =-.179019E-02
 BRION: g(F)=  0.134E-02 g(S)=  0.000E+00 retain N=  5 mean eig= 2.08
 eig:   4.154  4.154  0.654  0.707  0.707
 bond charge predicted
       N       E                     dE             d eps       ncg     rms          rms(c)
RMM:   1    -0.301756821650E+03    0.27119E-02   -0.86857E-01  1952   0.194E+00
RMM:   2    -0.301760993956E+03   -0.41723E-02   -0.53737E-02  1952   0.600E-01
RMM:   3    -0.302386100021E+03   -0.62511E+00   -0.57630E-02  1952   0.325E-01
RMM:   4    -0.301704434961E+03    0.68167E+00   -0.59317E+01  4532   0.199E+00
RMM:   5    -0.302010107687E+03   -0.30567E+00   -0.34059E-02  3549   0.129E-01    0.104E-01
RMM:   6    -0.301765907737E+03    0.24420E+00   -0.41463E-02  3576   0.569E-02    0.175E-01
RMM:   7    -0.301761152003E+03    0.47557E-02   -0.25663E-01  2665   0.472E-02    0.682E-02
RMM:   8    -0.301761198771E+03   -0.46767E-04   -0.93242E-04  2460   0.256E-02
   7 F= -.30176120E+03 E0= -.30170630E+03  d E =-.170273E-02
 BRION: g(F)=  0.760E-03 g(S)=  0.000E+00 retain N=  6 mean eig= 2.07
 eig:   4.079  4.079  1.516  1.516  0.608  0.608
 bond charge predicted
       N       E                     dE             d eps       ncg     rms          rms(c)
RMM:   1    -0.301759661989E+03    0.14900E-02   -0.79838E-01  1952   0.182E+00
RMM:   2    -0.301807134687E+03   -0.47473E-01   -0.42261E-02  1952   0.544E-01
RMM:   3    -0.306594661948E+03   -0.47875E+01    0.32006E-01  1952   0.284E-01
RMM:   4    -0.301666535374E+03    0.49281E+01   -0.53988E+01  4447   0.159E+00
RMM:   5    -0.301625396955E+03    0.41138E-01   -0.58760E-01  3301   0.166E-01    0.338E-01
RMM:   6    -0.301834030511E+03   -0.20863E+00   -0.15205E-02  4316   0.173E-01    0.120E+00
RMM:   7    -0.301762418776E+03    0.71612E-01   -0.51349E-01  4049   0.167E-01    0.277E-01
RMM:   8    -0.301762824512E+03   -0.40574E-03   -0.13451E-02  3706   0.534E-02    0.142E-01
RMM:   9    -0.301762507434E+03    0.31708E-03   -0.64259E-04  3279   0.305E-02    0.861E-02
RMM:  10    -0.301762425539E+03    0.81895E-04   -0.12021E-04  2348   0.185E-02
   8 F= -.30176243E+03 E0= -.30170757E+03  d E =-.122677E-02
 BRION: g(F)=  0.827E-03 g(S)=  0.000E+00 retain N=  7 mean eig= 2.40
 eig:   4.114  4.114  3.243  3.243  0.654  0.708  0.708
 bond charge predicted
       N       E                     dE             d eps       ncg     rms          rms(c)
RMM:   1    -0.301760070602E+03    0.24368E-02   -0.89316E-01  1952   0.195E+00
RMM:   2    -0.301799190712E+03   -0.39120E-01   -0.48660E-02  1952   0.582E-01
RMM:   3    -0.302361313754E+03   -0.56212E+00    0.66601E-04  1952   0.276E-01
RMM:   4    -0.301763852319E+03    0.59746E+00   -0.72658E+01  4502   0.129E+00
RMM:   5    -0.301763768010E+03    0.84309E-04   -0.10534E-03  3342   0.628E-02    0.183E-01
RMM:   6    -0.301766320091E+03   -0.25521E-02   -0.32017E-03  3999   0.876E-02    0.616E-01
RMM:   7    -0.301763352665E+03    0.29674E-02   -0.14345E-03  3816   0.624E-02    0.620E-02
RMM:   8    -0.301763516083E+03   -0.16342E-03   -0.19498E-04  2758   0.274E-02    0.640E-02
RMM:   9    -0.301763481611E+03    0.34472E-04   -0.74675E-05  2270   0.180E-02
   9 F= -.30176348E+03 E0= -.30170869E+03  d E =-.105607E-02
 BRION: g(F)=  0.685E-03 g(S)=  0.000E+00 retain N=  8 mean eig= 3.39
 eig:   7.611  7.611  4.260  4.260  1.054  1.054  0.626  0.626
 bond charge predicted
       N       E                     dE             d eps       ncg     rms          rms(c)
RMM:   1    -0.301761953216E+03    0.15629E-02   -0.85734E-01  1952   0.184E+00
RMM:   2    -0.301764740959E+03   -0.27877E-02   -0.44305E-02  1952   0.535E-01
RMM:   3    -0.304970997606E+03   -0.32063E+01   -0.27188E-02  1952   0.245E-01
RMM:   4    -0.301788751285E+03    0.31822E+01   -0.35090E+01  4421   0.110E+00
RMM:   5    -0.301895761593E+03   -0.10701E+00   -0.46211E-01  3207   0.132E-01    0.255E-01
RMM:   6    -0.301769875308E+03    0.12589E+00   -0.75245E-01  4134   0.176E-01    0.796E-01
RMM:   7    -0.301764338886E+03    0.55364E-02   -0.28817E-03  3962   0.861E-02    0.160E-01
RMM:   8    -0.301764375392E+03   -0.36506E-04   -0.29193E-04  3021   0.317E-02
  10 F= -.30176438E+03 E0= -.30170972E+03  d E =-.893781E-03
 BRION: g(F)=  0.268E-03 g(S)=  0.000E+00 retain N=  6 mean eig= 3.03
 eig:   5.782  5.782  2.267  2.267  1.033  1.033
 bond charge predicted
       N       E                     dE             d eps       ncg     rms          rms(c)
RMM:   1    -0.301762976097E+03    0.13628E-02   -0.67839E-01  1952   0.165E+00
RMM:   2    -0.302825554207E+03   -0.10626E+01   -0.34551E-02  1952   0.479E-01
RMM:   3    -0.307799683206E+03   -0.49741E+01   -0.74697E+01  1952   0.589E-01
RMM:   4    -0.301787730256E+03    0.60120E+01   -0.13718E+02  4405   0.171E+00
RMM:   5    -0.301765212841E+03    0.22517E-01   -0.80599E-01  2965   0.101E-01    0.173E-01
RMM:   6    -0.301767223142E+03   -0.20103E-02   -0.30230E-03  3898   0.801E-02    0.540E-01
RMM:   7    -0.301766174781E+03    0.10484E-02   -0.12220E-03  3765   0.569E-02    0.633E-02
RMM:   8    -0.301765037265E+03    0.11375E-02   -0.73833E-02  2875   0.345E-02    0.958E-02
RMM:   9    -0.301764962105E+03    0.75160E-04   -0.98415E-05  2245   0.172E-02
  11 F= -.30176496E+03 E0= -.30171041E+03  d E =-.586713E-03
 BRION: g(F)=  0.267E-03 g(S)=  0.000E+00 retain N=  6 mean eig= 3.48
 eig:   7.143  7.143  1.159  1.159  2.145  2.145
 bond charge predicted
       N       E                     dE             d eps       ncg     rms          rms(c)
RMM:   1    -0.301762058256E+03    0.29790E-02   -0.13162E+00  1952   0.224E+00
RMM:   2    -0.301766151222E+03   -0.40930E-02   -0.66632E-02  1952   0.644E-01
RMM:   3    -0.304881128051E+03   -0.31150E+01   -0.44473E-02  1952   0.289E-01
RMM:   4    -0.301766056212E+03    0.31151E+01   -0.75049E+01  4488   0.142E+00
RMM:   5    -0.302359558529E+03   -0.59350E+00   -0.16196E-03  3311   0.597E-02    0.528E-01
RMM:   6    -0.301828930924E+03    0.53063E+00   -0.33591E+00  4395   0.494E-01    0.131E+00
RMM:   7    -0.301766243645E+03    0.62687E-01   -0.43280E-01  4175   0.189E-01    0.385E-01
RMM:   8    -0.301765917159E+03    0.32649E-03   -0.12776E-03  3773   0.566E-02    0.265E-01
RMM:   9    -0.301765596070E+03    0.32109E-03   -0.34411E-04  3117   0.289E-02    0.153E-01
RMM:  10    -0.301765475909E+03    0.12016E-03   -0.11658E-04  2407   0.208E-02    0.842E-02
RMM:  11    -0.301765429560E+03    0.46350E-04   -0.20063E-04  2657   0.245E-02
  12 F= -.30176543E+03 E0= -.30171098E+03  d E =-.467454E-03
 BRION: g(F)=  0.945E-04 g(S)=  0.000E+00 retain N=  2 mean eig= 2.91
 eig:   2.913  2.913
 bond charge predicted
       N       E                     dE             d eps       ncg     rms          rms(c)
RMM:   1    -0.301765360149E+03    0.11576E-03   -0.61138E-02  1952   0.508E-01
RMM:   2    -0.301765601682E+03   -0.24153E-03   -0.42240E-03  1952   0.159E-01
RMM:   3    -0.302776744651E+03   -0.10111E+01   -0.30286E-03  1950   0.112E-01
RMM:   4    -0.301363764080E+03    0.14130E+01   -0.17783E+01  3880   0.143E+00
RMM:   5    -0.301257430950E+03    0.10633E+00   -0.18722E+00  2972   0.266E-01    0.376E-01
RMM:   6    -0.301262753042E+03   -0.53221E-02   -0.21247E-02  4440   0.200E-01    0.797E-01
RMM:   7    -0.301759931090E+03   -0.49718E+00   -0.43993E+00  4096   0.252E-01    0.623E-01
RMM:   8    -0.301766799707E+03   -0.68686E-02   -0.14134E-01  3767   0.789E-02    0.377E-01
RMM:   9    -0.301765730269E+03    0.10694E-02   -0.77125E-03  3814   0.533E-02    0.143E-01
RMM:  10    -0.301765605952E+03    0.12432E-03   -0.72532E-04  2691   0.217E-02    0.863E-02
RMM:  11    -0.301765533198E+03    0.72755E-04   -0.66743E-05  2265   0.153E-02
  13 F= -.30176553E+03 E0= -.30171115E+03  d E =-.103638E-03
 BRION: g(F)=  0.598E-04 g(S)=  0.000E+00 retain N=  3 mean eig= 2.35
 eig:   3.115  3.115  0.809
 reached required accuracy - stopping structural energy minimisation
 writing wavefunctions
