 running on   32 total cores
 distrk:  each k-point on   32 cores,    1 groups
 distr:  one band on    8 cores,    4 groups
 using from now: INCAR     
 vasp.5.4.1 05Feb16 (build Dec 31 2016 05:41:53) complex                        
  
 POSCAR found type information on POSCAR  O  Sn
 POSCAR found :  2 types and      49 ions
 scaLAPACK will be used

 ----------------------------------------------------------------------------- 
|                                                                             |
|  ADVICE TO THIS USER RUNNING 'VASP/VAMP'   (HEAR YOUR MASTER'S VOICE ...):  |
|                                                                             |
|      You have a (more or less) 'large supercell' and for larger cells       |
|      it might be more efficient to use real space projection opertators     |
|      So try LREAL= Auto  in the INCAR   file.                               |
|      Mind: At the moment your POTCAR file does not contain real space       |
|       projectors, and has to be modified,  BUT if you                       |
|      want to do an extremely  accurate calculation you might also keep the  |
|      reciprocal projection scheme          (i.e. LREAL=.FALSE.)             |
|                                                                             |
 ----------------------------------------------------------------------------- 

 LDA part: xc-table for Pade appr. of Perdew
 found WAVECAR, reading the header
 POSCAR, INCAR and KPOINTS ok, starting setup
 WARNING: small aliasing (wrap around) errors must be expected
 FFT: planning ...
 reading WAVECAR
 the WAVECAR file was read successfully
 entering main loop
       N       E                     dE             d eps       ncg     rms          rms(c)
RMM:   1    -0.976845813356E+02   -0.97685E+02   -0.41805E+02  2600   0.401E+01
RMM:   2    -0.107445123855E+04   -0.97677E+03   -0.99948E+03  2600   0.118E+02
RMM:   3    -0.740967842552E+03    0.33348E+03   -0.19153E+04  2600   0.183E+02
RMM:   4    -0.766116967935E+02    0.66436E+03   -0.18269E+04  6477   0.221E+02
RMM:   5    -0.164279064509E+03   -0.87667E+02   -0.21820E+03  6534   0.602E+01BRMIX: very serious problems
 the old and the new charge density differ
 old charge density:   430.00000 new  429.00004
    0.351E+01
RMM:   6    -0.254621942124E+03   -0.90343E+02   -0.84418E+02  6475   0.320E+01    0.192E+01
RMM:   7    -0.289619576630E+03   -0.34998E+02   -0.34275E+02  6375   0.205E+01    0.105E+01
RMM:   8    -0.306175094269E+03   -0.16556E+02   -0.16045E+02  6482   0.106E+01    0.623E+00
RMM:   9    -0.312445533938E+03   -0.62704E+01   -0.64653E+01  6730   0.550E+00    0.418E+00
RMM:  10    -0.314003148052E+03   -0.15576E+01   -0.24095E+01  6376   0.421E+00    0.138E+00
RMM:  11    -0.314772605211E+03   -0.76946E+00   -0.94324E+00  6763   0.184E+00    0.134E+00
RMM:  12    -0.315189699355E+03   -0.41709E+00   -0.58119E+00  6443   0.110E+00    0.834E-01
RMM:  13    -0.315247328439E+03   -0.57629E-01   -0.11744E+00  6391   0.735E-01    0.394E-01
RMM:  14    -0.315357557493E+03   -0.11023E+00   -0.13663E+00  6363   0.484E-01    0.210E-01
RMM:  15    -0.315373931125E+03   -0.16374E-01   -0.48073E-01  6325   0.242E-01    0.130E-01
RMM:  16    -0.315387020337E+03   -0.13089E-01   -0.17621E-01  5547   0.144E-01    0.121E-01
RMM:  17    -0.315389764947E+03   -0.27446E-02   -0.52647E-02  5399   0.886E-02    0.399E-02
RMM:  18    -0.315390794327E+03   -0.10294E-02   -0.16725E-02  4782   0.490E-02    0.230E-02
RMM:  19    -0.315391065988E+03   -0.27166E-03   -0.49128E-03  3654   0.294E-02    0.831E-03
RMM:  20    -0.315391132488E+03   -0.66500E-04   -0.13364E-03  3225   0.167E-02    0.332E-03
RMM:  21    -0.315391152071E+03   -0.19583E-04   -0.41253E-04  2843   0.167E-02
   1 F= -.31539115E+03 E0= -.31536623E+03  d E =-.315391E+03
 BRION: g(F)=  0.586E+01 g(S)=  0.000E+00
 bond charge predicted
       N       E                     dE             d eps       ncg     rms          rms(c)
RMM:   1    -0.339289835237E+03   -0.23899E+02   -0.15766E+03  5729   0.655E+01    0.153E+01
RMM:   2    -0.324668577668E+03    0.14621E+02   -0.13218E+02  6184   0.258E+01    0.138E+01
RMM:   3    -0.320335972039E+03    0.43326E+01   -0.56491E+00  6885   0.491E+00    0.928E+00
RMM:   4    -0.318395926115E+03    0.19400E+01   -0.42605E+00  6193   0.337E+00    0.289E+00
RMM:   5    -0.318199501496E+03    0.19642E+00   -0.96785E-01  6179   0.146E+00    0.876E-01
RMM:   6    -0.318188408563E+03    0.11093E-01   -0.10305E-01  6395   0.531E-01    0.433E-01
RMM:   7    -0.318186733139E+03    0.16754E-02   -0.21044E-02  6672   0.226E-01    0.171E-01
RMM:   8    -0.318186568727E+03    0.16441E-03   -0.24194E-03  5803   0.925E-02    0.501E-02
RMM:   9    -0.318186601048E+03   -0.32321E-04   -0.45676E-04  4885   0.403E-02
   2 F= -.31818660E+03 E0= -.31817479E+03  d E =-.279545E+01
 BRION: g(F)=  0.406E+01 g(S)=  0.000E+00 retain N=  1 mean eig= 0.61
 eig:   0.611
 bond charge predicted
       N       E                     dE             d eps       ncg     rms          rms(c)
RMM:   1    -0.320254081679E+03   -0.20675E+01   -0.39280E+02  6070   0.414E+01    0.599E+00
RMM:   2    -0.318950918044E+03    0.13032E+01   -0.14369E+01  6177   0.936E+00    0.175E+00
RMM:   3    -0.319060719298E+03   -0.10980E+00   -0.24634E+00  6919   0.294E+00    0.236E+00
RMM:   4    -0.319058551792E+03    0.21675E-02   -0.97895E-02  6256   0.768E-01    0.169E+00
RMM:   5    -0.319036771204E+03    0.21781E-01   -0.69254E-02  6213   0.540E-01    0.558E-01
RMM:   6    -0.319035458957E+03    0.13122E-02   -0.14012E-02  6145   0.247E-01    0.577E-01
RMM:   7    -0.319035431494E+03    0.27463E-04   -0.18040E-03  5891   0.838E-02    0.914E-02
RMM:   8    -0.319035387773E+03    0.43722E-04   -0.82489E-04  5200   0.647E-02
   3 F= -.31903539E+03 E0= -.31901942E+03  d E =-.848787E+00
 BRION: g(F)=  0.166E+01 g(S)=  0.000E+00 retain N=  2 mean eig= 0.20
 eig:   0.196  0.196
 bond charge predicted
       N       E                     dE             d eps       ncg     rms          rms(c)
RMM:   1    -0.331364391016E+03   -0.12329E+02   -0.34940E+02  5494   0.313E+01    0.316E+00
RMM:   2    -0.319659059411E+03    0.11705E+02   -0.20913E+01  6180   0.142E+01    0.152E+00
RMM:   3    -0.319620154346E+03    0.38905E-01   -0.52837E-01  6999   0.169E+00    0.108E+00
RMM:   4    -0.319610864926E+03    0.92894E-02   -0.25978E-02  6129   0.368E-01    0.649E-01
RMM:   5    -0.319606308652E+03    0.45563E-02   -0.19698E-02  6161   0.278E-01    0.122E-01
RMM:   6    -0.319606236584E+03    0.72067E-04   -0.17676E-03  6027   0.872E-02    0.572E-02
RMM:   7    -0.319606227400E+03    0.91840E-05   -0.21690E-04  3747   0.343E-02
   4 F= -.31960623E+03 E0= -.31959354E+03  d E =-.570840E+00
 BRION: g(F)=  0.309E+00 g(S)=  0.000E+00 retain N=  3 mean eig= 1.72
 eig:   0.591  2.292  2.292
 bond charge predicted
       N       E                     dE             d eps       ncg     rms          rms(c)
RMM:   1    -0.323152878650E+03   -0.35466E+01   -0.93754E+01  5235   0.159E+01    0.155E+00
RMM:   2    -0.319796310847E+03    0.33566E+01   -0.59410E+00  6180   0.785E+00    0.752E-01
RMM:   3    -0.319787575076E+03    0.87358E-02   -0.14018E-01  6990   0.905E-01    0.519E-01
RMM:   4    -0.319786508591E+03    0.10665E-02   -0.50195E-03  6142   0.180E-01    0.333E-01
RMM:   5    -0.319786060419E+03    0.44817E-03   -0.33097E-03  6072   0.156E-01    0.422E-02
RMM:   6    -0.319786070231E+03   -0.98126E-05   -0.29781E-04  3694   0.415E-02
   5 F= -.31978607E+03 E0= -.31977355E+03  d E =-.179843E+00
 BRION: g(F)=  0.114E+00 g(S)=  0.000E+00 retain N=  4 mean eig= 2.80
 eig:   4.871  4.871  0.731  0.731
 bond charge predicted
       N       E                     dE             d eps       ncg     rms          rms(c)
RMM:   1    -0.322148906695E+03   -0.23628E+01   -0.83966E+01  5200   0.163E+01    0.148E+00
RMM:   2    -0.319903866099E+03    0.22450E+01   -0.45223E+00  6180   0.699E+00    0.582E-01
RMM:   3    -0.319907859932E+03   -0.39938E-02   -0.17045E-01  6976   0.924E-01    0.563E-01
RMM:   4    -0.319907854376E+03    0.55559E-05   -0.42952E-03  6289   0.159E-01    0.419E-01
RMM:   5    -0.319907514245E+03    0.34013E-03   -0.29189E-03  6075   0.125E-01    0.847E-02
RMM:   6    -0.319907520283E+03   -0.60377E-05   -0.32509E-04  4292   0.424E-02
   6 F= -.31990752E+03 E0= -.31989506E+03  d E =-.121450E+00
 BRION: g(F)=  0.749E-01 g(S)=  0.000E+00 retain N=  5 mean eig= 2.51
 eig:   5.046  5.046  0.868  0.868  0.704
 bond charge predicted
       N       E                     dE             d eps       ncg     rms          rms(c)
RMM:   1    -0.322989879249E+03   -0.30824E+01   -0.10307E+02  5200   0.176E+01    0.162E+00
RMM:   2    -0.320003436636E+03    0.29864E+01   -0.55652E+00  6180   0.758E+00    0.656E-01
RMM:   3    -0.320002496560E+03    0.94008E-03   -0.17467E-01  6982   0.951E-01    0.549E-01
RMM:   4    -0.320002333591E+03    0.16297E-03   -0.47276E-03  6266   0.160E-01    0.395E-01
RMM:   5    -0.320002079162E+03    0.25443E-03   -0.28908E-03  6201   0.120E-01    0.491E-02
RMM:   6    -0.320002086331E+03   -0.71699E-05   -0.28672E-04  4049   0.378E-02
   7 F= -.32000209E+03 E0= -.31998953E+03  d E =-.945660E-01
 BRION: g(F)=  0.327E-01 g(S)=  0.000E+00 retain N=  6 mean eig= 3.28
 eig:   7.212  7.212  1.812  1.812  0.815  0.815
 bond charge predicted
       N       E                     dE             d eps       ncg     rms          rms(c)
RMM:   1    -0.320527488661E+03   -0.52541E+00   -0.19006E+01  5200   0.782E+00    0.648E-01
RMM:   2    -0.320034091860E+03    0.49340E+00   -0.95722E-01  6179   0.315E+00    0.255E-01
RMM:   3    -0.320034348916E+03   -0.25706E-03   -0.32848E-02  6963   0.418E-01    0.240E-01
RMM:   4    -0.320034345064E+03    0.38518E-05   -0.97259E-04  4958   0.679E-02
   8 F= -.32003435E+03 E0= -.32002173E+03  d E =-.322587E-01
 BRION: g(F)=  0.215E-01 g(S)=  0.000E+00 retain N=  6 mean eig= 2.04
 eig:   3.921  3.921  1.468  1.468  0.737  0.737
 bond charge predicted
       N       E                     dE             d eps       ncg     rms          rms(c)
RMM:   1    -0.320743197922E+03   -0.70885E+00   -0.26827E+01  5200   0.925E+00    0.730E-01
RMM:   2    -0.320068361048E+03    0.67484E+00   -0.12432E+00  6180   0.357E+00    0.285E-01
RMM:   3    -0.320068410096E+03   -0.49048E-04   -0.36718E-02  6970   0.453E-01    0.242E-01
RMM:   4    -0.320068415171E+03   -0.50748E-05   -0.11764E-03  5451   0.722E-02    0.177E-01
RMM:   5    -0.320068350835E+03    0.64336E-04   -0.58819E-04  4941   0.567E-02
   9 F= -.32006835E+03 E0= -.32005576E+03  d E =-.340058E-01
 BRION: g(F)=  0.157E-01 g(S)=  0.000E+00 retain N=  7 mean eig= 2.80
 eig:   7.238  7.238  1.200  1.200  0.984  0.984  0.730
 bond charge predicted
       N       E                     dE             d eps       ncg     rms          rms(c)
RMM:   1    -0.322278770565E+03   -0.22104E+01   -0.94381E+01  5200   0.177E+01    0.137E+00
RMM:   2    -0.320118605143E+03    0.21602E+01   -0.42038E+00  6180   0.662E+00    0.598E-01
RMM:   3    -0.320119292031E+03   -0.68689E-03   -0.14065E-01  6975   0.876E-01    0.499E-01
RMM:   4    -0.320119162745E+03    0.12929E-03   -0.46232E-03  6378   0.150E-01    0.359E-01
RMM:   5    -0.320118796267E+03    0.36648E-03   -0.30029E-03  5998   0.118E-01    0.695E-02
RMM:   6    -0.320118795117E+03    0.11498E-05   -0.24615E-04  3614   0.381E-02
  10 F= -.32011880E+03 E0= -.32010626E+03  d E =-.504443E-01
 BRION: g(F)=  0.827E-02 g(S)=  0.000E+00 retain N=  6 mean eig= 3.74
 eig:   7.840  7.840  2.282  2.282  1.083  1.083
 bond charge predicted
       N       E                     dE             d eps       ncg     rms          rms(c)
RMM:   1    -0.320947979675E+03   -0.82918E+00   -0.35167E+01  5200   0.107E+01    0.774E-01
RMM:   2    -0.320141946022E+03    0.80603E+00   -0.15160E+00  6180   0.395E+00    0.327E-01
RMM:   3    -0.320142289480E+03   -0.34346E-03   -0.47563E-02  6972   0.513E-01    0.288E-01
RMM:   4    -0.320142296850E+03   -0.73697E-05   -0.16329E-03  5857   0.849E-02    0.211E-01
RMM:   5    -0.320142181873E+03    0.11498E-03   -0.82297E-04  5093   0.651E-02    0.565E-02
RMM:   6    -0.320142182436E+03   -0.56360E-06   -0.10753E-04  3144   0.263E-02
  11 F= -.32014218E+03 E0= -.32012971E+03  d E =-.233873E-01
 BRION: g(F)=  0.552E-02 g(S)=  0.000E+00 retain N=  3 mean eig= 4.43
 eig:   1.676  5.805  5.805
 bond charge predicted
       N       E                     dE             d eps       ncg     rms          rms(c)
RMM:   1    -0.320629958101E+03   -0.48778E+00   -0.19908E+01  5200   0.801E+00    0.585E-01
RMM:   2    -0.320155327170E+03    0.47463E+00   -0.87451E-01  6180   0.300E+00    0.234E-01
RMM:   3    -0.320155556722E+03   -0.22955E-03   -0.25918E-02  6939   0.380E-01    0.207E-01
RMM:   4    -0.320155563487E+03   -0.67651E-05   -0.96240E-04  4933   0.639E-02
  12 F= -.32015556E+03 E0= -.32014313E+03  d E =-.133811E-01
 BRION: g(F)=  0.436E-02 g(S)=  0.000E+00 retain N=  2 mean eig= 3.11
 eig:   3.115  3.115
 bond charge predicted
       N       E                     dE             d eps       ncg     rms          rms(c)
RMM:   1    -0.320637377436E+03   -0.48182E+00   -0.20257E+01  5200   0.805E+00    0.589E-01
RMM:   2    -0.320166875695E+03    0.47050E+00   -0.86184E-01  6180   0.296E+00    0.251E-01
RMM:   3    -0.320166914942E+03   -0.39246E-04   -0.25297E-02  6949   0.375E-01    0.200E-01
RMM:   4    -0.320166913919E+03    0.10229E-05   -0.94640E-04  5091   0.637E-02
  13 F= -.32016691E+03 E0= -.32015454E+03  d E =-.113504E-01
 BRION: g(F)=  0.316E-02 g(S)=  0.000E+00 retain N=  2 mean eig= 2.67
 eig:   2.674  2.674
 bond charge predicted
       N       E                     dE             d eps       ncg     rms          rms(c)
RMM:   1    -0.320225571742E+03   -0.58657E-01   -0.23024E+00  5200   0.273E+00    0.214E-01
RMM:   2    -0.320170600700E+03    0.54971E-01   -0.10289E-01  6180   0.103E+00    0.854E-02
RMM:   3    -0.320170686417E+03   -0.85717E-04   -0.32531E-03  6377   0.131E-01    0.717E-02
RMM:   4    -0.320170686730E+03   -0.31306E-06   -0.14802E-04  3262   0.274E-02
  14 F= -.32017069E+03 E0= -.32015833E+03  d E =-.377281E-02
 BRION: g(F)=  0.280E-02 g(S)=  0.000E+00 retain N=  3 mean eig= 2.78
 eig:   3.808  3.808  0.734
 bond charge predicted
       N       E                     dE             d eps       ncg     rms          rms(c)
RMM:   1    -0.320748976041E+03   -0.57829E+00   -0.24847E+01  5200   0.895E+00    0.644E-01
RMM:   2    -0.320179297779E+03    0.56968E+00   -0.10583E+00  6180   0.328E+00    0.273E-01
RMM:   3    -0.320179466039E+03   -0.16826E-03   -0.31953E-02  6950   0.419E-01    0.231E-01
RMM:   4    -0.320179461174E+03    0.48650E-05   -0.11588E-03  5359   0.707E-02    0.167E-01
RMM:   5    -0.320179383768E+03    0.77406E-04   -0.53516E-04  4939   0.526E-02
  15 F= -.32017938E+03 E0= -.32016710E+03  d E =-.869704E-02
 BRION: g(F)=  0.208E-02 g(S)=  0.000E+00 retain N=  3 mean eig= 3.96
 eig:   5.434  5.434  1.016
 bond charge predicted
       N       E                     dE             d eps       ncg     rms          rms(c)
RMM:   1    -0.320282001269E+03   -0.10254E+00   -0.42440E+00  5200   0.364E+00    0.264E-01
RMM:   2    -0.320183115467E+03    0.98886E-01   -0.17761E-01  6180   0.133E+00    0.108E-01
RMM:   3    -0.320183151010E+03   -0.35543E-04   -0.49176E-03  6666   0.163E-01    0.863E-02
RMM:   4    -0.320183152805E+03   -0.17955E-05   -0.23097E-04  3404   0.312E-02
  16 F= -.32018315E+03 E0= -.32017090E+03  d E =-.376904E-02
 BRION: g(F)=  0.157E-02 g(S)=  0.000E+00 retain N=  3 mean eig= 3.66
 eig:   0.841  5.066  5.066
 reached required accuracy - stopping structural energy minimisation
 writing wavefunctions
