 running on   32 total cores
 distrk:  each k-point on   32 cores,    1 groups
 distr:  one band on    8 cores,    4 groups
 using from now: INCAR     
 vasp.5.4.1 05Feb16 (build Dec 31 2016 05:41:53) complex                        
  
 POSCAR found type information on POSCAR  O  Sn
 POSCAR found :  2 types and      47 ions
 scaLAPACK will be used

 ----------------------------------------------------------------------------- 
|                                                                             |
|  ADVICE TO THIS USER RUNNING 'VASP/VAMP'   (HEAR YOUR MASTER'S VOICE ...):  |
|                                                                             |
|      You have a (more or less) 'large supercell' and for larger cells       |
|      it might be more efficient to use real space projection opertators     |
|      So try LREAL= Auto  in the INCAR   file.                               |
|      Mind: At the moment your POTCAR file does not contain real space       |
|       projectors, and has to be modified,  BUT if you                       |
|      want to do an extremely  accurate calculation you might also keep the  |
|      reciprocal projection scheme          (i.e. LREAL=.FALSE.)             |
|                                                                             |
 ----------------------------------------------------------------------------- 

 LDA part: xc-table for Pade appr. of Perdew
 POSCAR, INCAR and KPOINTS ok, starting setup
 WARNING: small aliasing (wrap around) errors must be expected
 FFT: planning ...
 WAVECAR not read
 entering main loop
       N       E                     dE             d eps       ncg     rms          rms(c)
RMM:   1     0.106960325741E+03    0.10696E+03   -0.23125E+05  1952   0.240E+03
RMM:   2     0.464599132968E+03    0.35764E+03   -0.45060E+04  1952   0.435E+02
RMM:   3    -0.131506871942E+03   -0.59611E+03   -0.12602E+04  1952   0.212E+02
RMM:   4    -0.283726790253E+03   -0.15222E+03   -0.49788E+03  4723   0.162E+02
RMM:   5    -0.354083521638E+03   -0.70357E+02   -0.69825E+02  5052   0.408E+01BRMIX: very serious problems
 the old and the new charge density differ
 old charge density:   410.00000 new  407.99998
    0.396E+01
RMM:   6    -0.317529472814E+03    0.36554E+02   -0.19664E+02  4672   0.247E+01    0.164E+01
RMM:   7    -0.318914231071E+03   -0.13848E+01   -0.35367E+01  4999   0.884E+00    0.949E+00
RMM:   8    -0.318954072924E+03   -0.39842E-01   -0.89438E+00  4656   0.640E+00    0.404E+00
RMM:   9    -0.318702645923E+03    0.25143E+00   -0.13656E+00  4710   0.222E+00    0.140E+00
RMM:  10    -0.318726602105E+03   -0.23956E-01   -0.88564E-01  4654   0.163E+00    0.112E+00
RMM:  11    -0.318702970295E+03    0.23632E-01   -0.90020E-02  5423   0.435E-01    0.686E-01
RMM:  12    -0.318693939861E+03    0.90304E-02   -0.25055E-02  4619   0.282E-01    0.279E-01
RMM:  13    -0.318694141083E+03   -0.20122E-03   -0.12118E-02  4412   0.184E-01    0.141E-01
RMM:  14    -0.318693451972E+03    0.68911E-03   -0.14194E-03  4017   0.745E-02    0.488E-02
RMM:  15    -0.318693445347E+03    0.66253E-05   -0.32797E-04  3198   0.332E-02
   1 F= -.31869345E+03 E0= -.31868005E+03  d E =-.318693E+03
 curvature:   0.00 expect dE= 0.000E+00 dE for cont linesearch  0.000E+00
 trial: gam= 0.00000 g(F)=  0.258E+01 g(S)=  0.000E+00 ort = 0.000E+00 (trialstep = 0.100E+01)
 search vector abs. value=  0.258E+01
 bond charge predicted
       N       E                     dE             d eps       ncg     rms          rms(c)
RMM:   1    -0.321547750307E+03   -0.28543E+01   -0.76700E+02  5107   0.610E+01    0.117E+01
RMM:   2    -0.319641480434E+03    0.19063E+01   -0.39088E+01  4631   0.159E+01    0.305E+00
RMM:   3    -0.319968320093E+03   -0.32684E+00   -0.52882E+00  5270   0.440E+00    0.324E+00
RMM:   4    -0.319961345889E+03    0.69742E-02   -0.12023E-01  4769   0.770E-01    0.257E+00
RMM:   5    -0.319944006853E+03    0.17339E-01   -0.89428E-02  4623   0.769E-01    0.485E-01
RMM:   6    -0.319941514670E+03    0.24922E-02   -0.32172E-02  4767   0.361E-01    0.458E-01
RMM:   7    -0.319940786455E+03    0.72821E-03   -0.39023E-03  4692   0.146E-01    0.158E-01
RMM:   8    -0.319940729255E+03    0.57199E-04   -0.14246E-03  4076   0.100E-01    0.434E-02
RMM:   9    -0.319940727673E+03    0.15826E-05   -0.23017E-04  2558   0.365E-02
   2 F= -.31994073E+03 E0= -.31994073E+03  d E =-.124728E+01
 trial-energy change:   -1.247282  1 .order   -0.933101   -2.583291    0.717089
 step:   0.8540(harm=  0.7827)  dis= 0.10573  next Energy=  -319.992112 (dE=-0.130E+01)
 bond charge predicted
       N       E                     dE             d eps       ncg     rms          rms(c)
RMM:   1    -0.320130274131E+03   -0.18954E+00   -0.15480E+01  4305   0.727E+00    0.948E-01
RMM:   2    -0.319991564979E+03    0.13871E+00   -0.75139E-01  4648   0.224E+00    0.341E-01
RMM:   3    -0.319995053747E+03   -0.34888E-02   -0.67624E-02  5219   0.466E-01    0.387E-01
RMM:   4    -0.319994989814E+03    0.63934E-04   -0.16081E-03  4008   0.888E-02    0.294E-01
RMM:   5    -0.319994555738E+03    0.43408E-03   -0.14363E-03  4120   0.734E-02    0.638E-02
RMM:   6    -0.319994520544E+03    0.35194E-04   -0.26029E-04  3205   0.342E-02
   3 F= -.31999452E+03 E0= -.31999452E+03  d E =-.130108E+01
 curvature:  -0.35 expect dE=-0.295E+00 dE for cont linesearch -0.117E-03
 trial: gam= 0.33882 g(F)=  0.846E+00 g(S)=  0.000E+00 ort =-0.294E-01 (trialstep = 0.971E+00)
 search vector abs. value=  0.112E+01
 bond charge predicted
       N       E                     dE             d eps       ncg     rms          rms(c)
RMM:   1    -0.331861790268E+03   -0.11867E+02   -0.38700E+02  4099   0.361E+01    0.470E+00
RMM:   2    -0.320540882586E+03    0.11321E+02   -0.23648E+01  4656   0.155E+01    0.247E+00
RMM:   3    -0.320445850838E+03    0.95032E-01   -0.12089E+00  5263   0.249E+00    0.178E+00
RMM:   4    -0.320428752119E+03    0.17099E-01   -0.51603E-02  4641   0.551E-01    0.110E+00
RMM:   5    -0.320422227958E+03    0.65242E-02   -0.44244E-02  4641   0.420E-01    0.152E-01
RMM:   6    -0.320422355662E+03   -0.12770E-03   -0.34311E-03  4544   0.128E-01    0.745E-02
RMM:   7    -0.320422283140E+03    0.72522E-04   -0.46099E-04  3564   0.494E-02
   4 F= -.32042228E+03 E0= -.32042228E+03  d E =-.427763E+00
 trial-energy change:   -0.427763  1 .order   -0.424463   -0.811454   -0.037472
 step:   1.0166(harm=  1.0178)  dis= 0.07390  next Energy=  -320.423167 (dE=-0.429E+00)
 bond charge predicted
       N       E                     dE             d eps       ncg     rms          rms(c)
RMM:   1    -0.320453534868E+03   -0.31179E-01   -0.90770E-01  3941   0.162E+00    0.164E-01
RMM:   2    -0.320423427173E+03    0.30108E-01   -0.58973E-02  4625   0.785E-01    0.581E-02
RMM:   3    -0.320423383357E+03    0.43817E-04   -0.19965E-03  4362   0.109E-01    0.572E-02
RMM:   4    -0.320423380275E+03    0.30815E-05   -0.78164E-05  2374   0.291E-02
   5 F= -.32042338E+03 E0= -.32042338E+03  d E =-.428860E+00
 curvature:  -0.68 expect dE=-0.188E+00 dE for cont linesearch -0.587E-05
 trial: gam= 0.22077 g(F)=  0.275E+00 g(S)=  0.000E+00 ort = 0.310E-02 (trialstep = 0.980E+00)
 search vector abs. value=  0.331E+00
 bond charge predicted
       N       E                     dE             d eps       ncg     rms          rms(c)
RMM:   1    -0.324079714807E+03   -0.36563E+01   -0.11777E+02  4035   0.194E+01    0.220E+00
RMM:   2    -0.320541449689E+03    0.35383E+01   -0.71655E+00  4648   0.871E+00    0.824E-01
RMM:   3    -0.320535608490E+03    0.58412E-02   -0.32178E-01  5274   0.130E+00    0.745E-01
RMM:   4    -0.320534780386E+03    0.82810E-03   -0.86378E-03  4655   0.243E-01    0.535E-01
RMM:   5    -0.320533683042E+03    0.10973E-02   -0.63985E-03  4537   0.194E-01    0.691E-02
RMM:   6    -0.320533688762E+03   -0.57202E-05   -0.77352E-04  4002   0.612E-02
   6 F= -.32053369E+03 E0= -.32053369E+03  d E =-.110308E+00
 trial-energy change:   -0.110308  1 .order   -0.108310   -0.270283    0.053664
 step:   0.8225(harm=  0.8176)  dis= 0.03299  next Energy=  -320.537991 (dE=-0.115E+00)
 bond charge predicted
       N       E                     dE             d eps       ncg     rms          rms(c)
RMM:   1    -0.320644542704E+03   -0.11086E+00   -0.31810E+00  3969   0.311E+00    0.306E-01
RMM:   2    -0.320538000083E+03    0.10654E+00   -0.20318E-01  4648   0.144E+00    0.114E-01
RMM:   3    -0.320537731803E+03    0.26828E-03   -0.66723E-03  5005   0.200E-01    0.961E-02
RMM:   4    -0.320537721083E+03    0.10720E-04   -0.20448E-04  2659   0.364E-02
   7 F= -.32053772E+03 E0= -.32053772E+03  d E =-.114341E+00
 curvature:  -0.49 expect dE=-0.349E-01 dE for cont linesearch -0.341E-05
 trial: gam= 0.25540 g(F)=  0.712E-01 g(S)=  0.000E+00 ort = 0.152E-02 (trialstep = 0.948E+00)
 search vector abs. value=  0.936E-01
 bond charge predicted
       N       E                     dE             d eps       ncg     rms          rms(c)
RMM:   1    -0.321639531542E+03   -0.11018E+01   -0.32992E+01  3974   0.992E+00    0.105E+00
RMM:   2    -0.320565118850E+03    0.10744E+01   -0.22023E+00  4648   0.480E+00    0.384E-01
RMM:   3    -0.320563487598E+03    0.16313E-02   -0.84974E-02  5273   0.682E-01    0.389E-01
RMM:   4    -0.320563429415E+03    0.58183E-04   -0.19392E-03  4207   0.108E-01    0.295E-01
RMM:   5    -0.320563236386E+03    0.19303E-03   -0.12909E-03  4260   0.961E-02    0.549E-02
RMM:   6    -0.320563237083E+03   -0.69685E-06   -0.14742E-04  2414   0.313E-02
   8 F= -.32056324E+03 E0= -.32056324E+03  d E =-.255160E-01
 trial-energy change:   -0.025516  1 .order   -0.024576   -0.067931    0.018778
 step:   0.7531(harm=  0.7431)  dis= 0.01304  next Energy=  -320.565162 (dE=-0.274E-01)
 bond charge predicted
       N       E                     dE             d eps       ncg     rms          rms(c)
RMM:   1    -0.320610508119E+03   -0.47272E-01   -0.13919E+00  3964   0.202E+00    0.204E-01
RMM:   2    -0.320565051473E+03    0.45457E-01   -0.90683E-02  4642   0.964E-01    0.696E-02
RMM:   3    -0.320564997732E+03    0.53741E-04   -0.32209E-03  4603   0.135E-01    0.740E-02
RMM:   4    -0.320564991976E+03    0.57560E-05   -0.87358E-05  2374   0.299E-02
   9 F= -.32056499E+03 E0= -.32056499E+03  d E =-.272709E-01
 curvature:  -0.48 expect dE=-0.120E-01 dE for cont linesearch -0.296E-05
 trial: gam= 0.32935 g(F)=  0.247E-01 g(S)=  0.000E+00 ort = 0.756E-03 (trialstep = 0.909E+00)
 search vector abs. value=  0.353E-01
 bond charge predicted
       N       E                     dE             d eps       ncg     rms          rms(c)
RMM:   1    -0.320838040792E+03   -0.27304E+00   -0.10144E+01  3918   0.558E+00    0.622E-01
RMM:   2    -0.320575797262E+03    0.26224E+00   -0.62908E-01  4648   0.255E+00    0.209E-01
RMM:   3    -0.320576468746E+03   -0.67148E-03   -0.31751E-02  5225   0.391E-01    0.233E-01
RMM:   4    -0.320576501087E+03   -0.32342E-04   -0.74091E-04  3217   0.624E-02
  10 F= -.32057650E+03 E0= -.32057650E+03  d E =-.115091E-01
 trial-energy change:   -0.011509  1 .order   -0.011281   -0.022683    0.000121
 step:   0.9046(harm=  0.9046)  dis= 0.00971  next Energy=  -320.576274 (dE=-0.113E-01)
 bond charge predicted
       N       E                     dE             d eps       ncg     rms          rms(c)
RMM:   1    -0.320576457288E+03    0.11458E-04   -0.68053E-04  3836   0.634E-02    0.591E-02
RMM:   2    -0.320576455752E+03    0.15360E-05   -0.53272E-05  2305   0.197E-02
  11 F= -.32057646E+03 E0= -.32057646E+03  d E =-.114638E-01
 curvature:  -0.64 expect dE=-0.606E-02 dE for cont linesearch -0.162E-04
 trial: gam= 0.34953 g(F)=  0.946E-02 g(S)=  0.000E+00 ort = 0.944E-03 (trialstep = 0.908E+00)
 search vector abs. value=  0.144E-01
 bond charge predicted
       N       E                     dE             d eps       ncg     rms          rms(c)
RMM:   1    -0.320741422136E+03   -0.16496E+00   -0.47486E+00  3914   0.383E+00    0.343E-01
RMM:   2    -0.320582145224E+03    0.15928E+00   -0.29575E-01  4648   0.178E+00    0.134E-01
RMM:   3    -0.320581600807E+03    0.54442E-03   -0.91788E-03  5124   0.250E-01    0.121E-01
RMM:   4    -0.320581586400E+03    0.14407E-04   -0.29625E-04  2891   0.412E-02
  12 F= -.32058159E+03 E0= -.32058159E+03  d E =-.513065E-02
 trial-energy change:   -0.005131  1 .order   -0.005090   -0.008891   -0.001290
 step:   1.0626(harm=  1.0626)  dis= 0.00841  next Energy=  -320.581655 (dE=-0.520E-02)
 bond charge predicted
       N       E                     dE             d eps       ncg     rms          rms(c)
RMM:   1    -0.320586368330E+03   -0.47675E-02   -0.13581E-01  3947   0.647E-01    0.645E-02
RMM:   2    -0.320581698802E+03    0.46695E-02   -0.87552E-03  4371   0.304E-01    0.250E-02
WARNING in EDDRMM: call to ZHEGV failed, returncode =   6  3 39
RMM:   3    -0.320581683492E+03    0.15310E-04   -0.31633E-04  3202   0.469E-02
  13 F= -.32058168E+03 E0= -.32058168E+03  d E =-.522774E-02
 curvature:  -0.78 expect dE=-0.400E-02 dE for cont linesearch -0.529E-05
 trial: gam= 0.57687 g(F)=  0.510E-02 g(S)=  0.000E+00 ort =-0.312E-03 (trialstep = 0.939E+00)
 search vector abs. value=  0.955E-02
 bond charge predicted
       N       E                     dE             d eps       ncg     rms          rms(c)
RMM:   1    -0.320694069531E+03   -0.11237E+00   -0.33592E+00  3904   0.322E+00    0.256E-01
RMM:   2    -0.320584781760E+03    0.10929E+00   -0.19384E-01  4648   0.146E+00    0.106E-01
RMM:   3    -0.320584391939E+03    0.38982E-03   -0.51936E-03  4982   0.191E-01    0.940E-02
RMM:   4    -0.320584386880E+03    0.50587E-05   -0.22897E-04  2605   0.359E-02
  14 F= -.32058439E+03 E0= -.32058439E+03  d E =-.270339E-02
 trial-energy change:   -0.002703  1 .order   -0.002587   -0.004625   -0.000548
 step:   1.0655(harm=  1.0655)  dis= 0.00777  next Energy=  -320.584307 (dE=-0.262E-02)
 bond charge predicted
       N       E                     dE             d eps       ncg     rms          rms(c)
RMM:   1    -0.320586888587E+03   -0.24966E-02   -0.64515E-02  3920   0.431E-01    0.391E-02
RMM:   2    -0.320584433302E+03    0.24553E-02   -0.43254E-03  4304   0.214E-01    0.166E-02
RMM:   3    -0.320584413870E+03    0.19432E-04   -0.59292E-05  2512   0.318E-02
  15 F= -.32058441E+03 E0= -.32058441E+03  d E =-.273038E-02
 curvature:  -1.03 expect dE=-0.289E-02 dE for cont linesearch -0.439E-06
 trial: gam= 0.51714 g(F)=  0.280E-02 g(S)=  0.000E+00 ort = 0.637E-04 (trialstep = 0.965E+00)
 search vector abs. value=  0.542E-02
 bond charge predicted
       N       E                     dE             d eps       ncg     rms          rms(c)
RMM:   1    -0.320638688820E+03   -0.54256E-01   -0.18662E+00  3904   0.242E+00    0.199E-01
RMM:   2    -0.320585877724E+03    0.52811E-01   -0.10141E-01  4646   0.103E+00    0.803E-02
RMM:   3    -0.320585759127E+03    0.11860E-03   -0.34401E-03  4687   0.140E-01    0.720E-02
RMM:   4    -0.320585757493E+03    0.16335E-05   -0.14367E-04  2405   0.317E-02
  16 F= -.32058576E+03 E0= -.32058576E+03  d E =-.134362E-02
 trial-energy change:   -0.001344  1 .order   -0.001302   -0.002730    0.000125
 step:   0.9223(harm=  0.9223)  dis= 0.00322  next Energy=  -320.585719 (dE=-0.131E-02)
 bond charge predicted
       N       E                     dE             d eps       ncg     rms          rms(c)
RMM:   1    -0.320585853648E+03   -0.94522E-04   -0.38841E-03  3519   0.112E-01    0.701E-03
RMM:   2    -0.320585755919E+03    0.97729E-04   -0.22592E-04  3365   0.468E-02
  17 F= -.32058576E+03 E0= -.32058576E+03  d E =-.134205E-02
 curvature:  -0.88 expect dE=-0.106E-02 dE for cont linesearch -0.245E-04
 trial: gam= 0.33103 g(F)=  0.121E-02 g(S)=  0.000E+00 ort = 0.387E-03 (trialstep = 0.956E+00)
 search vector abs. value=  0.206E-02
 reached required accuracy - stopping structural energy minimisation
 writing wavefunctions
