 running on   32 total cores
 distrk:  each k-point on   32 cores,    1 groups
 distr:  one band on    8 cores,    4 groups
 using from now: INCAR     
 vasp.5.4.1 05Feb16 (build Dec 31 2016 05:41:53) complex                        
  
 POSCAR found type information on POSCAR  O  Sn
 POSCAR found :  2 types and      47 ions
 scaLAPACK will be used

 ----------------------------------------------------------------------------- 
|                                                                             |
|  ADVICE TO THIS USER RUNNING 'VASP/VAMP'   (HEAR YOUR MASTER'S VOICE ...):  |
|                                                                             |
|      You have a (more or less) 'large supercell' and for larger cells       |
|      it might be more efficient to use real space projection opertators     |
|      So try LREAL= Auto  in the INCAR   file.                               |
|      Mind: At the moment your POTCAR file does not contain real space       |
|       projectors, and has to be modified,  BUT if you                       |
|      want to do an extremely  accurate calculation you might also keep the  |
|      reciprocal projection scheme          (i.e. LREAL=.FALSE.)             |
|                                                                             |
 ----------------------------------------------------------------------------- 

 LDA part: xc-table for Pade appr. of Perdew
 found WAVECAR, reading the header
 POSCAR, INCAR and KPOINTS ok, starting setup
 WARNING: small aliasing (wrap around) errors must be expected
 FFT: planning ...
 reading WAVECAR
 the WAVECAR file was read successfully
 entering main loop
       N       E                     dE             d eps       ncg     rms          rms(c)
RMM:   1    -0.321335175054E+03   -0.32134E+03   -0.14844E+03  1952   0.686E+01
RMM:   2    -0.374785743852E+03   -0.53451E+02   -0.71826E+02  1952   0.407E+01
RMM:   3    -0.511248251799E+03   -0.13646E+03   -0.32257E+03  1952   0.720E+01
RMM:   4    -0.249307503222E+03    0.26194E+03   -0.61095E+03  4784   0.148E+02
RMM:   5    -0.318488805809E+03   -0.69181E+02   -0.31627E+02  5167   0.228E+01BRMIX: very serious problems
 the old and the new charge density differ
 old charge density:   402.00000 new  405.99996
    0.453E+01
RMM:   6    -0.269960651376E+03    0.48528E+02   -0.27265E+02  4681   0.299E+01    0.172E+01
RMM:   7    -0.271453682666E+03   -0.14930E+01   -0.21937E+01  4800   0.737E+00    0.101E+01
RMM:   8    -0.271365305754E+03    0.88377E-01   -0.76392E+00  4657   0.567E+00    0.296E+00
RMM:   9    -0.271420562901E+03   -0.55257E-01   -0.17193E+00  4740   0.217E+00    0.904E-01
RMM:  10    -0.271941852053E+03   -0.52129E+00   -0.54509E+00  4830   0.121E+00    0.140E+00
RMM:  11    -0.272159541172E+03   -0.21769E+00   -0.18401E+00  5013   0.492E-01    0.105E+00
RMM:  12    -0.272159965417E+03   -0.42424E-03   -0.21139E-01  4592   0.284E-01    0.657E-01
RMM:  13    -0.272150804311E+03    0.91611E-02   -0.58625E-02  4617   0.251E-01    0.208E-01
RMM:  14    -0.272151403526E+03   -0.59921E-03   -0.20571E-02  4552   0.140E-01    0.925E-02
RMM:  15    -0.272151497702E+03   -0.94176E-04   -0.45315E-03  3721   0.656E-02    0.710E-02
RMM:  16    -0.272151494257E+03    0.34447E-05   -0.15251E-03  2785   0.347E-02    0.407E-02
WARNING in EDDRMM: call to ZHEGV failed, returncode =   6  3 49
RMM:  17    -0.272151475465E+03    0.18792E-04   -0.49367E-04  2633   0.232E-02
   1 F= -.27215148E+03 E0= -.27214482E+03  d E =-.272151E+03
 BRION: g(F)=  0.836E+01 g(S)=  0.000E+00
 bond charge predicted
       N       E                     dE             d eps       ncg     rms          rms(c)
RMM:   1    -0.270966622966E+03    0.11849E+01   -0.25935E+03  5199   0.131E+02    0.192E+01
RMM:   2    -0.271544439734E+03   -0.57782E+00   -0.15106E+02  4584   0.319E+01    0.719E+00
RMM:   3    -0.271957036288E+03   -0.41260E+00   -0.19845E+01  5164   0.103E+01    0.564E+00
RMM:   4    -0.271778005959E+03    0.17903E+00   -0.11360E+00  4904   0.228E+00    0.441E+00
RMM:   5    -0.271553069306E+03    0.22494E+00   -0.75663E-01  4667   0.227E+00    0.114E+00
RMM:   6    -0.271532172862E+03    0.20896E-01   -0.23275E-01  4786   0.994E-01    0.843E-01
RMM:   7    -0.271526219584E+03    0.59533E-02   -0.30773E-02  4637   0.513E-01    0.217E-01
RMM:   8    -0.271525888900E+03    0.33068E-03   -0.73491E-03  4537   0.211E-01    0.735E-02
RMM:   9    -0.271525969983E+03   -0.81083E-04   -0.11140E-03  4110   0.747E-02    0.499E-02
RMM:  10    -0.271526028631E+03   -0.58648E-04   -0.21572E-04  2510   0.408E-02
   2 F= -.27152603E+03 E0= -.27152603E+03  d E =0.625447E+00
 BRION: g(F)=  0.202E+02 g(S)=  0.000E+00 retain N=  1 mean eig= 0.39
 eig:   0.386
 bond charge predicted
       N       E                     dE             d eps       ncg     rms          rms(c)
RMM:   1    -0.276321614651E+03   -0.47956E+01   -0.86465E+02  4838   0.604E+01    0.104E+01
RMM:   2    -0.274939680376E+03    0.13819E+01   -0.31913E+01  4684   0.124E+01    0.433E+00
RMM:   3    -0.274664043855E+03    0.27564E+00   -0.34646E+00  5097   0.366E+00    0.380E+00
RMM:   4    -0.274546269676E+03    0.11777E+00   -0.39898E-01  4870   0.112E+00    0.284E+00
RMM:   5    -0.274448346411E+03    0.97923E-01   -0.22382E-01  4663   0.739E-01    0.642E-01
RMM:   6    -0.274436031809E+03    0.12315E-01   -0.97692E-02  4645   0.453E-01    0.558E-01
RMM:   7    -0.274435530630E+03    0.50118E-03   -0.75956E-03  4773   0.150E-01    0.229E-01
RMM:   8    -0.274435562414E+03   -0.31784E-04   -0.46112E-03  4137   0.114E-01    0.144E-01
RMM:   9    -0.274435432123E+03    0.13029E-03   -0.29085E-04  2919   0.338E-02    0.528E-02
RMM:  10    -0.274435467883E+03   -0.35761E-04   -0.33390E-04  2758   0.275E-02
   3 F= -.27443547E+03 E0= -.27443547E+03  d E =-.290944E+01
 BRION: g(F)=  0.918E+00 g(S)=  0.000E+00 retain N=  1 mean eig= 0.33
 eig:   0.331
 bond charge predicted
       N       E                     dE             d eps       ncg     rms          rms(c)
RMM:   1    -0.275649033836E+03   -0.12136E+01   -0.10022E+02  4285   0.182E+01    0.208E+00
RMM:   2    -0.274676780042E+03    0.97225E+00   -0.36852E+00  4658   0.522E+00    0.887E-01
RMM:   3    -0.274682278500E+03   -0.54985E-02   -0.32863E-01  5215   0.111E+00    0.800E-01
RMM:   4    -0.274681383239E+03    0.89526E-03   -0.96411E-03  4526   0.225E-01    0.599E-01
RMM:   5    -0.274680620374E+03    0.76287E-03   -0.72771E-03  4603   0.167E-01    0.165E-01
RMM:   6    -0.274680361956E+03    0.25842E-03   -0.21231E-03  4039   0.889E-02    0.894E-02
RMM:   7    -0.274680344667E+03    0.17289E-04   -0.12125E-04  2500   0.266E-02
   4 F= -.27468034E+03 E0= -.27468034E+03  d E =-.244877E+00
 BRION: g(F)=  0.166E+00 g(S)=  0.000E+00 retain N=  2 mean eig= 0.18
 eig:   0.180  0.180
 bond charge predicted
       N       E                     dE             d eps       ncg     rms          rms(c)
RMM:   1    -0.275404299349E+03   -0.72394E+00   -0.22571E+01  4124   0.787E+00    0.786E-01
RMM:   2    -0.274733517756E+03    0.67078E+00   -0.13050E+00  4669   0.322E+00    0.330E-01
RMM:   3    -0.274728947702E+03    0.45701E-02   -0.56589E-02  5107   0.525E-01    0.270E-01
RMM:   4    -0.274728597613E+03    0.35009E-03   -0.22309E-03  4028   0.105E-01    0.193E-01
RMM:   5    -0.274728334329E+03    0.26328E-03   -0.12700E-03  4040   0.739E-02    0.320E-02
RMM:   6    -0.274728332443E+03    0.18857E-05   -0.17907E-04  2514   0.295E-02
   5 F= -.27472833E+03 E0= -.27472833E+03  d E =-.479878E-01
 BRION: g(F)=  0.555E-01 g(S)=  0.000E+00 retain N=  3 mean eig= 2.30
 eig:   6.027  0.394  0.487
 bond charge predicted
       N       E                     dE             d eps       ncg     rms          rms(c)
RMM:   1    -0.275329234236E+03   -0.60090E+00   -0.15656E+01  3936   0.603E+00    0.510E-01
RMM:   2    -0.274759112768E+03    0.57012E+00   -0.93769E-01  4672   0.285E+00    0.245E-01
RMM:   3    -0.274755959071E+03    0.31537E-02   -0.27389E-02  4988   0.383E-01    0.180E-01
RMM:   4    -0.274755707953E+03    0.25112E-03   -0.15429E-03  3871   0.836E-02    0.118E-01
RMM:   5    -0.274755579421E+03    0.12853E-03   -0.64539E-04  3785   0.549E-02    0.160E-02
RMM:   6    -0.274755578581E+03    0.83925E-06   -0.84913E-05  2352   0.223E-02
   6 F= -.27475558E+03 E0= -.27475558E+03  d E =-.272461E-01
 BRION: g(F)=  0.255E-01 g(S)=  0.000E+00 retain N=  3 mean eig= 0.71
 eig:   0.520  0.811  0.811
 bond charge predicted
       N       E                     dE             d eps       ncg     rms          rms(c)
RMM:   1    -0.274921903843E+03   -0.16632E+00   -0.55603E+00  3945   0.395E+00    0.328E-01
RMM:   2    -0.274770781642E+03    0.15112E+00   -0.29355E-01  4666   0.164E+00    0.142E-01
RMM:   3    -0.274769623797E+03    0.11578E-02   -0.11959E-02  4855   0.256E-01    0.126E-01
RMM:   4    -0.274769546195E+03    0.77602E-04   -0.60634E-04  3356   0.565E-02
   7 F= -.27476955E+03 E0= -.27476955E+03  d E =-.139676E-01
 BRION: g(F)=  0.129E-01 g(S)=  0.000E+00 retain N=  4 mean eig= 2.01
 eig:   5.076  1.909  0.536  0.536
 bond charge predicted
       N       E                     dE             d eps       ncg     rms          rms(c)
RMM:   1    -0.275703222205E+03   -0.93360E+00   -0.32865E+01  3909   0.913E+00    0.675E-01
RMM:   2    -0.274802217074E+03    0.90101E+00   -0.15012E+00  4677   0.358E+00    0.364E-01
RMM:   3    -0.274792808406E+03    0.94087E-02   -0.44357E-02  5000   0.497E-01    0.231E-01
RMM:   4    -0.274792090869E+03    0.71754E-03   -0.33448E-03  4142   0.122E-01    0.135E-01
RMM:   5    -0.274791969327E+03    0.12154E-03   -0.95468E-04  3797   0.630E-02    0.290E-02
RMM:   6    -0.274791969909E+03   -0.58164E-06   -0.89932E-05  2452   0.235E-02
   8 F= -.27479197E+03 E0= -.27479197E+03  d E =-.224237E-01
 BRION: g(F)=  0.424E-02 g(S)=  0.000E+00 retain N=  5 mean eig= 3.17
 eig:   6.433  6.433  1.581  0.703  0.703
 bond charge predicted
       N       E                     dE             d eps       ncg     rms          rms(c)
RMM:   1    -0.274937259577E+03   -0.14529E+00   -0.57937E+00  3905   0.405E+00    0.288E-01
RMM:   2    -0.274798593513E+03    0.13867E+00   -0.24598E-01  4664   0.150E+00    0.141E-01
RMM:   3    -0.274797820328E+03    0.77318E-03   -0.79540E-03  4644   0.205E-01    0.111E-01
RMM:   4    -0.274797768836E+03    0.51492E-04   -0.46398E-04  3152   0.484E-02
   9 F= -.27479777E+03 E0= -.27479777E+03  d E =-.579893E-02
 BRION: g(F)=  0.227E-02 g(S)=  0.000E+00 retain N=  5 mean eig= 3.69
 eig:   7.515  7.515  1.422  1.422  0.564
 bond charge predicted
       N       E                     dE             d eps       ncg     rms          rms(c)
RMM:   1    -0.274941214186E+03   -0.14339E+00   -0.59136E+00  3904   0.405E+00    0.270E-01
RMM:   2    -0.274802639568E+03    0.13857E+00   -0.23354E-01  4652   0.146E+00    0.137E-01
RMM:   3    -0.274801751452E+03    0.88812E-03   -0.65944E-03  4453   0.191E-01    0.956E-02
RMM:   4    -0.274801693686E+03    0.57765E-04   -0.47292E-04  3195   0.493E-02
  10 F= -.27480169E+03 E0= -.27480169E+03  d E =-.392485E-02
 BRION: g(F)=  0.888E-03 g(S)=  0.000E+00 retain N=  5 mean eig= 2.41
 eig:   4.229  4.229  1.905  0.622  1.088
 reached required accuracy - stopping structural energy minimisation
 writing wavefunctions
