 vasp.5.4.1 05Feb16 (build Dec 31 2016 05:41:53) complex                        
  
 executed on           IFC91_ompi date 2017.08.16  06:35:16
 running on   32 total cores
 distrk:  each k-point on   32 cores,    1 groups
 distr:  one band on NCORES_PER_BAND=   8 cores,    4 groups


--------------------------------------------------------------------------------------------------------


 INCAR:
 POTCAR:    PAW_PBE O 08Apr2002                   
 POTCAR:    PAW_PBE Sn_d 06Sep2000                
 POTCAR:    PAW_PBE O 08Apr2002                   
   VRHFIN =O: s2p4                                                              
   LEXCH  = PE                                                                  
   EATOM  =   432.3788 eV,   31.7789 Ry                                         
                                                                                
   TITEL  = PAW_PBE O 08Apr2002                                                 
   LULTRA =        F    use ultrasoft PP ?                                      
   IUNSCR =        1    unscreen: 0-lin 1-nonlin 2-no                           
   RPACOR =    1.200    partial core radius                                     
   POMASS =   16.000; ZVAL   =    6.000    mass and valenz                      
   RCORE  =    1.520    outmost cutoff radius                                   
   RWIGS  =    1.550; RWIGS  =    0.820    wigner-seitz radius (au A)           
   ENMAX  =  400.000; ENMIN  =  300.000 eV                                      
   ICORE  =        2    local potential                                         
   LCOR   =        T    correct aug charges                                     
   LPAW   =        T    paw PP                                                  
   EAUG   =  605.392                                                            
   DEXC   =    0.000                                                            
   RMAX   =    1.553    core radius for proj-oper                               
   RAUG   =    1.300    factor for augmentation sphere                          
   RDEP   =    1.550    radius for radial grids                                 
   RDEPT  =    1.329    core radius for aug-charge                              
                                                                                
   Atomic configuration                                                         
    4 entries                                                                   
     n  l   j            E        occ.                                          
     1  0  0.50      -514.6923   2.0000                                         
     2  0  0.50       -23.9615   2.0000                                         
     2  1  0.50        -9.0305   4.0000                                         
     3  2  1.50        -9.5241   0.0000                                         
   Description                                                                  
     l       E           TYP  RCUT    TYP  RCUT                                 
     0    -23.9615318     23  1.200                                             
     0     -9.5240782     23  1.200                                             
     1     -9.0304911     23  1.520                                             
     1      8.1634956     23  1.520                                             
     2     -9.5240782      7  1.500                                             
  local pseudopotential read in
  partial core-charges read in
  partial kinetic energy density read in
  kinetic energy density of atom read in
  atomic valenz-charges read in
  non local Contribution for L=           0  read in
    real space projection operators read in
  non local Contribution for L=           0  read in
    real space projection operators read in
  non local Contribution for L=           1  read in
    real space projection operators read in
  non local Contribution for L=           1  read in
    real space projection operators read in
    PAW grid and wavefunctions read in
 
   number of l-projection  operators is LMAX  =           4
   number of lm-projection operators is LMMAX =           8
 
 POTCAR:    PAW_PBE Sn_d 06Sep2000                
   VRHFIN =Sn: s2p2                                                             
   LEXCH  = PE                                                                  
   EATOM  =  1893.1092 eV,  139.1396 Ry                                         
                                                                                
   TITEL  = PAW_PBE Sn_d 06Sep2000                                              
   LULTRA =        F    use ultrasoft PP ?                                      
   IUNSCR =        1    unscreen: 0-lin 1-nonlin 2-no                           
   RPACOR =    2.300    partial core radius                                     
   POMASS =  118.710; ZVAL   =   14.000    mass and valenz                      
   RCORE  =    2.500    outmost cutoff radius                                   
   RWIGS  =    2.960; RWIGS  =    1.566    wigner-seitz radius (au A)           
   ENMAX  =  241.083; ENMIN  =  180.812 eV                                      
   ICORE  =        3    local potential                                         
   LCOR   =        T    correct aug charges                                     
   LPAW   =        T    paw PP                                                  
   EAUG   =  439.825                                                            
   DEXC   =    0.000                                                            
   RMAX   =    2.560    core radius for proj-oper                               
   RAUG   =    1.300    factor for augmentation sphere                          
   RDEP   =    2.659    radius for radial grids                                 
   RDEPT  =    2.046    core radius for aug-charge                              
                                                                                
   Atomic configuration                                                         
   12 entries                                                                   
     n  l   j            E        occ.                                          
     1  0  0.50    -29007.2859   2.0000                                         
     2  0  0.50     -4378.8056   2.0000                                         
     2  1  1.50     -3930.4293   6.0000                                         
     3  0  0.50      -845.0264   2.0000                                         
     3  1  1.50      -698.5725   6.0000                                         
     3  2  2.50      -473.2839  10.0000                                         
     4  0  0.50      -133.9036   2.0000                                         
     4  1  1.50       -89.6752   6.0000                                         
     4  2  2.50       -25.8375  10.0000                                         
     5  0  0.50       -10.5484   2.0000                                         
     5  1  0.50        -3.6940   2.0000                                         
     4  3  2.50        -2.7416   0.0000                                         
   Description                                                                  
     l       E           TYP  RCUT    TYP  RCUT                                 
     2    -25.8374624     23  2.500                                             
     2     -5.4423304     23  2.500                                             
     0    -10.5483727     23  2.500                                             
     0     13.6058260     23  2.500                                             
     1     -3.6939829     23  2.500                                             
     1      1.9821976     23  2.500                                             
     3     -1.3605826      7  2.500                                             
  local pseudopotential read in
  partial core-charges read in
  partial kinetic energy density read in
  atomic valenz-charges read in
  non local Contribution for L=           2  read in
    real space projection operators read in
  non local Contribution for L=           2  read in
    real space projection operators read in
  non local Contribution for L=           0  read in
    real space projection operators read in
  non local Contribution for L=           0  read in
    real space projection operators read in
  non local Contribution for L=           1  read in
    real space projection operators read in
  non local Contribution for L=           1  read in
    real space projection operators read in
    PAW grid and wavefunctions read in
 
   number of l-projection  operators is LMAX  =           6
   number of lm-projection operators is LMMAX =          18
 

 ----------------------------------------------------------------------------- 
|                                                                             |
|  ADVICE TO THIS USER RUNNING 'VASP/VAMP'   (HEAR YOUR MASTER'S VOICE ...):  |
|                                                                             |
|      You have a (more or less) 'large supercell' and for larger cells       |
|      it might be more efficient to use real space projection opertators     |
|      So try LREAL= Auto  in the INCAR   file.                               |
|      Mind: At the moment your POTCAR file does not contain real space       |
|       projectors, and has to be modified,  BUT if you                       |
|      want to do an extremely  accurate calculation you might also keep the  |
|      reciprocal projection scheme          (i.e. LREAL=.FALSE.)             |
|                                                                             |
 ----------------------------------------------------------------------------- 

  PAW_PBE O 08Apr2002                   :
 energy of atom  1       EATOM= -432.3788
 kinetic energy error for atom=    0.0258 (will be added to EATOM!!)
  PAW_PBE Sn_d 06Sep2000                :
 energy of atom  2       EATOM=-1893.1092
 kinetic energy error for atom=    0.0038 (will be added to EATOM!!)
 
 
 POSCAR: SnO2                                    
  positions in direct lattice
  velocities in cartesian coordinates
 exchange correlation table for  LEXCH =        8
   RHO(1)=    0.500       N(1)  =     2000
   RHO(2)=  100.500       N(2)  =     4000
 


--------------------------------------------------------------------------------------------------------


 ion  position               nearest neighbor table
   1  0.097  0.903  0.750-  40 2.04  36 2.04
   2  0.403  0.597  0.750-  40 2.04  33 2.04  47 2.04
   3  0.903  0.597  0.750-  34 2.04  38 2.04  43 2.04
   4  0.653  0.153  0.000-  46 2.04  45 2.04  41 2.04
   5  0.847  0.347  0.000-  43 2.04  41 2.04  45 2.04
   6  0.903  0.097  0.250-  45 2.04  36 2.04
   7  0.597  0.403  0.250-  45 2.04  33 2.04  47 2.04
   8  0.653  0.153  0.500-  42 2.04  41 2.04  45 2.04
   9  0.347  0.847  0.500-  42 2.04  40 2.04  44 2.04
  10  0.847  0.347  0.500-  38 2.04  41 2.04  45 2.04
  11  0.597  0.403  0.750-  41 2.04  33 2.04  47 2.04
  12  0.653  0.653  0.000-  47 2.04  37 2.04  34 2.04
  13  0.847  0.847  0.000-  34 2.04  37 2.04
  14  0.903  0.597  0.250-  37 2.04  38 2.04  43 2.04
  15  0.597  0.903  0.250-  37 2.04  42 2.04  46 2.04
  16  0.653  0.653  0.500-  33 2.04  34 2.04  37 2.04
  17  0.847  0.847  0.500-  36 2.04  34 2.04  37 2.04
  18  0.903  0.097  0.750-  41 2.04  36 2.04
  19  0.153  0.653  0.500-  38 2.04  40 2.04  44 2.04
  20  0.597  0.903  0.750-  34 2.04  42 2.04  46 2.04
  21  0.347  0.347  0.500-  33 2.04  35 2.04  39 2.04
  22  0.097  0.903  0.250-  44 2.04  36 2.04
  23  0.403  0.597  0.250-  44 2.04  33 2.04  47 2.04
  24  0.347  0.847  0.000-  46 2.04  44 2.04  40 2.04
  25  0.153  0.153  0.500-  36 2.04  35 2.04  39 2.04
  26  0.153  0.153  0.000-  35 2.04  39 2.04
  27  0.153  0.653  0.000-  43 2.04  40 2.04  44 2.04
  28  0.097  0.403  0.250-  35 2.04  38 2.04  43 2.04
  29  0.403  0.097  0.750-  39 2.04  42 2.04  46 2.04
  30  0.097  0.403  0.750-  39 2.04  38 2.04  43 2.04
  31  0.347  0.347  0.000-  47 2.04  39 2.04  35 2.04
  32  0.403  0.097  0.250-  35 2.04  42 2.04  46 2.04
  33  0.500  0.500  0.500-  16 2.04  21 2.04  11 2.04   2 2.04   7 2.04  23 2.04  47 3.15  47 3.15
                            37 3.69  39 3.69  40 3.69  41 3.69  44 3.69  45 3.69  34 3.69  35 3.69
  34  0.750  0.750  0.750-   3 2.04  20 2.04  13 2.04  16 2.04  17 2.04  12 2.04  37 3.15  37 3.15
                            33 3.69  38 3.69  42 3.69  43 3.69  46 3.69  47 3.69  36 3.69
  35  0.250  0.250  0.250-  28 2.04  32 2.04  26 2.04  21 2.04  31 2.04  25 2.04  39 3.15  39 3.15
                            38 3.69  33 3.69  42 3.69  43 3.69  46 3.69  47 3.69  36 3.69
  36  0.000  0.000  0.500-  17 2.04  25 2.04   1 2.04  18 2.04  22 2.04   6 2.04  34 3.69  35 3.69
                            37 3.69  39 3.69  40 3.69  41 3.69  44 3.69  45 3.69
  37  0.750  0.750  0.250-  14 2.04  15 2.04  12 2.04  13 2.04  16 2.04  17 2.04  34 3.15  34 3.15
                            36 3.69  38 3.69  42 3.69  43 3.69  46 3.69  47 3.69  33 3.69
  38  0.000  0.500  0.500-  10 2.04  19 2.04  14 2.04   3 2.04  28 2.04  30 2.04  43 3.15  43 3.15
                            37 3.69  39 3.69  40 3.69  41 3.69  34 3.69  44 3.69  45 3.69  35 3.69
  39  0.250  0.250  0.750-  29 2.04  30 2.04  26 2.04  21 2.04  25 2.04  31 2.04  35 3.15  35 3.15
                            36 3.69  38 3.69  42 3.69  43 3.69  46 3.69  47 3.69  33 3.69
  40  0.250  0.750  0.750-   1 2.04   2 2.04   9 2.04  19 2.04  24 2.04  27 2.04  44 3.15  44 3.15
                            38 3.69  42 3.69  43 3.69  33 3.69  46 3.69  47 3.69  36 3.69
  41  0.750  0.250  0.750-  11 2.04  18 2.04   8 2.04  10 2.04   4 2.04   5 2.04  45 3.15  45 3.15
                            38 3.69  42 3.69  43 3.69  33 3.69  46 3.69  47 3.69  36 3.69
  42  0.500  0.000  0.500-   8 2.04   9 2.04  15 2.04  20 2.04  29 2.04  32 2.04  46 3.15  46 3.15
                            37 3.69  39 3.69  40 3.69  41 3.69  44 3.69  45 3.69  34 3.69  35 3.69
  43  0.000  0.500  0.000-   5 2.04  27 2.04  14 2.04   3 2.04  28 2.04  30 2.04  38 3.15  38 3.15
                            37 3.69  34 3.69  39 3.69  40 3.69  41 3.69  44 3.69  45 3.69  35 3.69
  44  0.250  0.750  0.250-  22 2.04  23 2.04   9 2.04  19 2.04  24 2.04  27 2.04  40 3.15  40 3.15
                            38 3.69  33 3.69  42 3.69  43 3.69  46 3.69  47 3.69  36 3.69
  45  0.750  0.250  0.250-   6 2.04   7 2.04   4 2.04   5 2.04   8 2.04  10 2.04  41 3.15  41 3.15
                            38 3.69  33 3.69  42 3.69  43 3.69  46 3.69  47 3.69  36 3.69
  46  0.500  0.000  0.000-   4 2.04  24 2.04  20 2.04  15 2.04  29 2.04  32 2.04  42 3.15  42 3.15
                            37 3.69  39 3.69  40 3.69  41 3.69  34 3.69  44 3.69  45 3.69  35 3.69
  47  0.500  0.500  0.000-  12 2.04  31 2.04  11 2.04   2 2.04  23 2.04   7 2.04  33 3.15  33 3.15
                            35 3.69  37 3.69  39 3.69  40 3.69  41 3.69  44 3.69  45 3.69  34 3.69
 
  LATTYP: Found a simple tetragonal cell.
 ALAT       =     9.4320271667
 C/A-ratio  =     0.6685526591
  
  Lattice vectors:
  
 A1 = (   9.4320271667,   0.0000000000,   0.0000000000)
 A2 = (   0.0000000000,   9.4320271667,   0.0000000000)
 A3 = (   0.0000000000,   0.0000000000,   6.3058068432)


Analysis of symmetry for initial positions (statically):
=====================================================================
 Subroutine PRICEL returns:
 Original cell was already a primitive cell.
 

 Routine SETGRP: Setting up the symmetry group for a 
 simple tetragonal supercell.


 Subroutine GETGRP returns: Found  8 space group operations
 (whereof  8 operations were pure point group operations)
 out of a pool of 16 trial point group operations.


The static configuration has the point symmetry D_2h.


Analysis of symmetry for dynamics (positions and initial velocities):
=====================================================================
 Subroutine PRICEL returns:
 Original cell was already a primitive cell.
 

 Routine SETGRP: Setting up the symmetry group for a 
 simple tetragonal supercell.


 Subroutine GETGRP returns: Found  8 space group operations
 (whereof  8 operations were pure point group operations)
 out of a pool of 16 trial point group operations.


The dynamic configuration has the point symmetry D_2h.


Analysis of constrained symmetry for selective dynamics:
=====================================================================
 Subroutine PRICEL returns:
 Original cell was already a primitive cell.
 

 Routine SETGRP: Setting up the symmetry group for a 
 simple tetragonal supercell.


 Subroutine GETGRP returns: Found  8 space group operations
 (whereof  8 operations were pure point group operations)
 out of a pool of 16 trial point group operations.


The constrained configuration has the point symmetry D_2h.


 Subroutine INISYM returns: Found  8 space group operations
 (whereof  8 operations are pure point group operations),
 and found     1 'primitive' translations

 
 
 KPOINTS: Automatic mesh                          

Automatic generation of k-mesh.
Space group operators:
 irot       det(A)        alpha          n_x          n_y          n_z        tau_x        tau_y        tau_z
    1     1.000000     0.000000     1.000000     0.000000     0.000000     0.000000     0.000000     0.000000
    2    -1.000000     0.000000     1.000000     0.000000     0.000000     0.000000     0.000000     0.000000
    3     1.000000   180.000000     0.000000     0.000000     1.000000     0.000000     0.000000     0.000000
    4    -1.000000   180.000000     0.000000     0.000000     1.000000     0.000000     0.000000     0.000000
    5     1.000000   180.000000     0.707107     0.707107     0.000000     0.000000     0.000000     0.000000
    6    -1.000000   180.000000     0.707107     0.707107     0.000000     0.000000     0.000000     0.000000
    7     1.000000   180.000000     0.707107    -0.707107     0.000000     0.000000     0.000000     0.000000
    8    -1.000000   180.000000     0.707107    -0.707107     0.000000     0.000000     0.000000     0.000000
 
 Subroutine IBZKPT returns following result:
 ===========================================
 
 Found      8 irreducible k-points:
 
 Following reciprocal coordinates:
            Coordinates               Weight
  0.000000  0.000000  0.125000      2.000000
  0.333333  0.000000  0.125000      8.000000
  0.333333  0.333333  0.125000      4.000000
 -0.333333  0.333333  0.125000      4.000000
  0.000000  0.000000  0.375000      2.000000
  0.333333  0.000000  0.375000      8.000000
  0.333333  0.333333  0.375000      4.000000
 -0.333333  0.333333  0.375000      4.000000
 
 Following cartesian coordinates:
            Coordinates               Weight
  0.000000  0.000000  0.019823      2.000000
  0.035341  0.000000  0.019823      8.000000
  0.035341  0.035341  0.019823      4.000000
 -0.035341  0.035341  0.019823      4.000000
  0.000000  0.000000  0.059469      2.000000
  0.035341  0.000000  0.059469      8.000000
  0.035341  0.035341  0.059469      4.000000
 -0.035341  0.035341  0.059469      4.000000
 


--------------------------------------------------------------------------------------------------------




 Dimension of arrays:
   k-points           NKPTS =      8   k-points in BZ     NKDIM =      8   number of bands    NBANDS=    244
   number of dos      NEDOS =    301   number of ions     NIONS =     47
   non local maximal  LDIM  =      6   non local SUM 2l+1 LMDIM =     18
   total plane-waves  NPLWV = 104976
   max r-space proj   IRMAX =      1   max aug-charges    IRDMAX=   8555
   dimension x,y,z NGX =    54 NGY =   54 NGZ =   36
   dimension x,y,z NGXF=   108 NGYF=  108 NGZF=   72
   support grid    NGXF=   108 NGYF=  108 NGZF=   72
   ions per type =              32  15
 NGX,Y,Z   is equivalent  to a cutoff of   9.52,  9.52,  9.49 a.u.
 NGXF,Y,Z  is equivalent  to a cutoff of  19.04, 19.04, 18.98 a.u.


 I would recommend the setting:
   dimension x,y,z NGX =    51 NGY =   51 NGZ =   34
 SYSTEM =  SnO2                                    
 POSCAR =  SnO2                                    

 Startparameter for this run:
   NWRITE =      2    write-flag & timer
   PREC   = normal    normal or accurate (medium, high low for compatibility)
   ISTART =      1    job   : 0-new  1-cont  2-samecut
   ICHARG =      2    charge: 1-file 2-atom 10-const
   ISPIN  =      1    spin polarized calculation?
   LNONCOLLINEAR =      F non collinear calculations
   LSORBIT =      F    spin-orbit coupling
   INIWAV =      1    electr: 0-lowe 1-rand  2-diag
   LASPH  =      F    aspherical Exc in radial PAW
   METAGGA=      F    non-selfconsistent MetaGGA calc.

 Electronic Relaxation 1
   ENCUT  =  480.0 eV  35.28 Ry    5.94 a.u.  16.85 16.85 11.26*2*pi/ulx,y,z
   ENINI  =  480.0     initial cutoff
   ENAUG  =  605.4 eV  augmentation charge cutoff
   NELM   =     60;   NELMIN=  2; NELMDL= -5     # of ELM steps 
   EDIFF  = 0.1E-03   stopping-criterion for ELM
   LREAL  =      F    real-space projection
   NLSPLINE    = F    spline interpolate recip. space projectors
   LCOMPAT=      F    compatible to vasp.4.4
   GGA_COMPAT  = T    GGA compatible to vasp.4.4-vasp.4.6
   LMAXPAW     = -100 max onsite density
   LMAXMIX     =    4 max onsite mixed and CHGCAR
   VOSKOWN=      0    Vosko Wilk Nusair interpolation
   ROPT   =    0.00000   0.00000
 Ionic relaxation
   EDIFFG = -.5E-01   stopping-criterion for IOM
   NSW    =    100    number of steps for IOM
   NBLOCK =      1;   KBLOCK =    100    inner block; outer block 
   IBRION =      1    ionic relax: 0-MD 1-quasi-New 2-CG
   NFREE  =      0    steps in history (QN), initial steepest desc. (CG)
   ISIF   =      2    stress and relaxation
   IWAVPR =     11    prediction:  0-non 1-charg 2-wave 3-comb
   ISYM   =      2    0-nonsym 1-usesym 2-fastsym
   LCORR  =      T    Harris-Foulkes like correction to forces

   POTIM  = 0.5000    time-step for ionic-motion
   TEIN   =    0.0    initial temperature
   TEBEG  =    0.0;   TEEND  =   0.0 temperature during run
   SMASS  =  -3.00    Nose mass-parameter (am)
   estimated Nose-frequenzy (Omega)   =  0.10E-29 period in steps =****** mass=  -0.203E-26a.u.
   SCALEE = 1.0000    scale energy and forces
   NPACO  =    256;   APACO  = 16.0  distance and # of slots for P.C.
   PSTRESS=    0.0 pullay stress

  Mass of Ions in am
   POMASS =  16.00118.71
  Ionic Valenz
   ZVAL   =   6.00 14.00
  Atomic Wigner-Seitz radii
   RWIGS  =  -1.00 -1.00
  virtual crystal weights 
   VCA    =   1.00  1.00
   NELECT =     406.0000    total number of electrons
   NUPDOWN=      -1.0000    fix difference up-down

 DOS related values:
   EMIN   =  10.00;   EMAX   =-10.00  energy-range for DOS
   EFERMI =   0.00
   ISMEAR =     0;   SIGMA  =   0.10  broadening in eV -4-tet -1-fermi 0-gaus

 Electronic relaxation 2 (details)
   IALGO  =     48    algorithm
   LDIAG  =      T    sub-space diagonalisation (order eigenvalues)
   LSUBROT=      F    optimize rotation matrix (better conditioning)
   TURBO    =      0    0=normal 1=particle mesh
   IRESTART =      0    0=no restart 2=restart with 2 vectors
   NREBOOT  =      0    no. of reboots
   NMIN     =      0    reboot dimension
   EREF     =   0.00    reference energy to select bands
   IMIX   =      4    mixing-type and parameters
     AMIX     =   0.40;   BMIX     =  1.00
     AMIX_MAG =   1.60;   BMIX_MAG =  1.00
     AMIN     =   0.10
     WC   =   100.;   INIMIX=   1;  MIXPRE=   1;  MAXMIX= -45

 Intra band minimization:
   WEIMIN = 0.0010     energy-eigenvalue tresh-hold
   EBREAK =  0.10E-06  absolut break condition
   DEPER  =   0.30     relativ break condition  

   TIME   =   0.40     timestep for ELM

  volume/ion in A,a.u.               =      11.94        80.55
  Fermi-wavevector in a.u.,A,eV,Ry     =   1.469828  2.777573 29.393960  2.160395
  Thomas-Fermi vector in A             =   2.585159
 
 Write flags
   LWAVE  =      T    write WAVECAR
   LCHARG =      T    write CHGCAR
   LVTOT  =      F    write LOCPOT, total local potential
   LVHAR  =      F    write LOCPOT, Hartree potential only
   LELF   =      F    write electronic localiz. function (ELF)
   LORBIT =      0    0 simple, 1 ext, 2 COOP (PROOUT)


 Dipole corrections
   LMONO  =      F    monopole corrections only (constant potential shift)
   LDIPOL =      F    correct potential (dipole corrections)
   IDIPOL =      0    1-x, 2-y, 3-z, 4-all directions 
   EPSILON=  1.0000000 bulk dielectric constant

 LDA+U is selected, type is set to LDAUTYPE =  2
   angular momentum for each species LDAUL =    -1    2
   U (eV)           for each species LDAUU =   0.0  4.0
   J (eV)           for each species LDAUJ =   0.0  0.0
 Exchange correlation treatment:
   GGA     =    --    GGA type
   LEXCH   =     8    internal setting for exchange type
   VOSKOWN=      0    Vosko Wilk Nusair interpolation
   LHFCALC =     F    Hartree Fock is set to
   LHFONE  =     F    Hartree Fock one center treatment
   AEXX    =    0.0000 exact exchange contribution

 Linear response parameters
   LEPSILON=     F    determine dielectric tensor
   LRPA    =     F    only Hartree local field effects (RPA)
   LNABLA  =     F    use nabla operator in PAW spheres
   LVEL    =     F    velocity operator in full k-point grid
   LINTERFAST=   F  fast interpolation
   KINTER  =     0    interpolate to denser k-point grid
   CSHIFT  =0.1000    complex shift for real part using Kramers Kronig
   OMEGAMAX=  -1.0    maximum frequency
   DEG_THRESHOLD= 0.2000000E-02 threshold for treating states as degnerate
   RTIME   =    0.100 relaxation time in fs

 Orbital magnetization related:
   ORBITALMAG=     F  switch on orbital magnetization
   LCHIMAG   =     F  perturbation theory with respect to B field
   DQ        =  0.001000  dq finite difference perturbation B field



--------------------------------------------------------------------------------------------------------


 quasi-Newton-method for relaxation of ions
   using selective dynamics as specified on POSCAR
 charge density and potential will be updated during run
 non-spin polarized calculation
 RMM-DIIS sequential band-by-band
 perform sub-space diagonalisation
    before iterative eigenvector-optimisation
 modified Broyden-mixing scheme, WC =      100.0
 initial mixing is a Kerker type mixing with AMIX =  0.4000 and BMIX =      1.0000
 Hartree-type preconditioning will be used
 using additional bands           41
 reciprocal scheme for non local part
 use partial core corrections
 calculate Harris-corrections to forces 
   (improved forces if not selfconsistent)
 use gradient corrections 
 use of overlap-Matrix (Vanderbilt PP)
 Gauss-broadening in eV      SIGMA  =   0.10


--------------------------------------------------------------------------------------------------------


  energy-cutoff  :      480.00
  volume of cell :      560.98
      direct lattice vectors                 reciprocal lattice vectors
     9.432027167  0.000000000  0.000000000     0.106021747  0.000000000  0.000000000
     0.000000000  9.432027167  0.000000000     0.000000000  0.106021747  0.000000000
     0.000000000  0.000000000  6.305806843     0.000000000  0.000000000  0.158583989

  length of vectors
     9.432027167  9.432027167  6.305806843     0.106021747  0.106021747  0.158583989


 
 old parameters found on file WAVECAR:
  energy-cutoff  :      480.00
  volume of cell :      560.98
      direct lattice vectors                 reciprocal lattice vectors
     9.432027167  0.000000000  0.000000000     0.106021747  0.000000000  0.000000000
     0.000000000  9.432027167  0.000000000     0.000000000  0.106021747  0.000000000
     0.000000000  0.000000000  6.305806843     0.000000000  0.000000000  0.158583989

  length of vectors

 
 k-points in units of 2pi/SCALE and weight: Automatic mesh                          
   0.00000000  0.00000000  0.01982300       0.056
   0.03534058  0.00000000  0.01982300       0.222
   0.03534058  0.03534058  0.01982300       0.111
  -0.03534058  0.03534058  0.01982300       0.111
   0.00000000  0.00000000  0.05946900       0.056
   0.03534058  0.00000000  0.05946900       0.222
   0.03534058  0.03534058  0.05946900       0.111
  -0.03534058  0.03534058  0.05946900       0.111
 
 k-points in reciprocal lattice and weights: Automatic mesh                          
   0.00000000  0.00000000  0.12500000       0.056
   0.33333333  0.00000000  0.12500000       0.222
   0.33333333  0.33333333  0.12500000       0.111
  -0.33333333  0.33333333  0.12500000       0.111
   0.00000000  0.00000000  0.37500000       0.056
   0.33333333  0.00000000  0.37500000       0.222
   0.33333333  0.33333333  0.37500000       0.111
  -0.33333333  0.33333333  0.37500000       0.111
 
 position of ions in fractional coordinates (direct lattice) 
   0.09707491  0.90292509  0.75000000
   0.40292509  0.59707491  0.75000000
   0.90292509  0.59707491  0.75000000
   0.65292509  0.15292509  0.00000000
   0.84707491  0.34707491  0.00000000
   0.90292509  0.09707491  0.25000000
   0.59707491  0.40292509  0.25000000
   0.65292509  0.15292509  0.50000000
   0.34707491  0.84707491  0.50000000
   0.84707491  0.34707491  0.50000000
   0.59707491  0.40292509  0.75000000
   0.65292509  0.65292509  0.00000000
   0.84707491  0.84707491  0.00000000
   0.90292509  0.59707491  0.25000000
   0.59707491  0.90292509  0.25000000
   0.65292509  0.65292509  0.50000000
   0.84707491  0.84707491  0.50000000
   0.90292509  0.09707491  0.75000000
   0.15292509  0.65292509  0.50000000
   0.59707491  0.90292509  0.75000000
   0.34707491  0.34707491  0.50000000
   0.09707491  0.90292509  0.25000000
   0.40292509  0.59707491  0.25000000
   0.34707491  0.84707491  0.00000000
   0.15292509  0.15292509  0.50000000
   0.15292509  0.15292509  0.00000000
   0.15292509  0.65292509  0.00000000
   0.09707491  0.40292509  0.25000000
   0.40292509  0.09707491  0.75000000
   0.09707491  0.40292509  0.75000000
   0.34707491  0.34707491  0.00000000
   0.40292509  0.09707491  0.25000000
   0.50000000  0.50000000  0.50000000
   0.75000000  0.75000000  0.75000000
   0.25000000  0.25000000  0.25000000
   0.00000000  0.00000000  0.50000000
   0.75000000  0.75000000  0.25000000
   0.00000000  0.50000000  0.50000000
   0.25000000  0.25000000  0.75000000
   0.25000000  0.75000000  0.75000000
   0.75000000  0.25000000  0.75000000
   0.50000000  0.00000000  0.50000000
   0.00000000  0.50000000  0.00000000
   0.25000000  0.75000000  0.25000000
   0.75000000  0.25000000  0.25000000
   0.50000000  0.00000000  0.00000000
   0.50000000  0.50000000  0.00000000
 
 position of ions in cartesian coordinates  (Angst):
   0.91561321  8.51641396  4.72935513
   3.80040037  5.63162680  4.72935513
   8.51641396  5.63162680  4.72935513
   6.15840716  1.44239358  0.00000000
   7.98963359  3.27362000  0.00000000
   8.51641396  0.91561321  1.57645171
   5.63162680  3.80040037  1.57645171
   6.15840716  1.44239358  3.15290342
   3.27362000  7.98963359  3.15290342
   7.98963359  3.27362000  3.15290342
   5.63162680  3.80040037  4.72935513
   6.15840716  6.15840716  0.00000000
   7.98963359  7.98963359  0.00000000
   8.51641396  5.63162680  1.57645171
   5.63162680  8.51641396  1.57645171
   6.15840716  6.15840716  3.15290342
   7.98963359  7.98963359  3.15290342
   8.51641396  0.91561321  4.72935513
   1.44239358  6.15840716  3.15290342
   5.63162680  8.51641396  4.72935513
   3.27362000  3.27362000  3.15290342
   0.91561321  8.51641396  1.57645171
   3.80040037  5.63162680  1.57645171
   3.27362000  7.98963359  0.00000000
   1.44239358  1.44239358  3.15290342
   1.44239358  1.44239358  0.00000000
   1.44239358  6.15840716  0.00000000
   0.91561321  3.80040037  1.57645171
   3.80040037  0.91561321  4.72935513
   0.91561321  3.80040037  4.72935513
   3.27362000  3.27362000  0.00000000
   3.80040037  0.91561321  1.57645171
   4.71601358  4.71601358  3.15290342
   7.07402038  7.07402038  4.72935513
   2.35800679  2.35800679  1.57645171
   0.00000000  0.00000000  3.15290342
   7.07402038  7.07402038  1.57645171
   0.00000000  4.71601358  3.15290342
   2.35800679  2.35800679  4.72935513
   2.35800679  7.07402038  4.72935513
   7.07402038  2.35800679  4.72935513
   4.71601358  0.00000000  3.15290342
   0.00000000  4.71601358  0.00000000
   2.35800679  7.07402038  1.57645171
   7.07402038  2.35800679  1.57645171
   4.71601358  0.00000000  0.00000000
   4.71601358  4.71601358  0.00000000
 


--------------------------------------------------------------------------------------------------------


 k-point  1 :   0.0000 0.0000 0.1250  plane waves:   13447
 k-point  2 :   0.3333 0.0000 0.1250  plane waves:   13402
 k-point  3 :   0.3333 0.3333 0.1250  plane waves:   13398
 k-point  4 :  -0.3333 0.3333 0.1250  plane waves:   13398
 k-point  5 :   0.0000 0.0000 0.3750  plane waves:   13390
 k-point  6 :   0.3333 0.0000 0.3750  plane waves:   13392
 k-point  7 :   0.3333 0.3333 0.3750  plane waves:   13396
 k-point  8 :  -0.3333 0.3333 0.3750  plane waves:   13396

 maximum and minimum number of plane-waves per node :      1695     1657

 maximum number of plane-waves:     13447
 maximum index in each direction: 
   IXMAX=   17   IYMAX=   16   IZMAX=   11
   IXMIN=  -17   IYMIN=  -17   IZMIN=  -11

 WARNING: aliasing errors must be expected set NGX to  70 to avoid them
 WARNING: aliasing errors must be expected set NGY to  68 to avoid them
 WARNING: aliasing errors must be expected set NGZ to  46 to avoid them
 aliasing errors are usually negligible using standard VASP settings
 and one can safely disregard these warnings

 parallel 3D FFT for wavefunctions:
    minimum data exchange during FFTs selected (reduces bandwidth)
 parallel 3D FFT for charge:
    minimum data exchange during FFTs selected (reduces bandwidth)


 total amount of memory used by VASP on root node    52824. kBytes
========================================================================

   base      :      30000. kBytes
   nonl-proj :       5182. kBytes
   fftplans  :       1450. kBytes
   grid      :       2326. kBytes
   one-center:         93. kBytes
   wavefun   :      13773. kBytes
 
     INWAV:  cpu time   50.1194: real time   50.1523
 Broyden mixing: mesh for mixing (old mesh)
   NGX = 33   NGY = 33   NGZ = 23
  (NGX  =108   NGY  =108   NGZ  = 72)
  gives a total of  25047 points

 initial charge density was supplied:
 charge density of overlapping atoms calculated
 number of electron     402.0000000 magnetization 
 keeping initial charge density in first step


--------------------------------------------------------------------------------------------------------


 Maximum index for augmentation-charges          526 (set IRDMAX)


--------------------------------------------------------------------------------------------------------


 First call to EWALD:  gamma=   0.215
 Maximum number of real-space cells 2x 2x 3
 Maximum number of reciprocal cells 3x 3x 2

 FEWALD executed in parallel
    FEWALD:  cpu time    0.0820: real time    0.1503


----------------------------------------- Iteration    1(   1)  ---------------------------------------


    POTLOK:  cpu time    0.4579: real time    0.6299
    SETDIJ:  cpu time    0.1280: real time    0.1288
atom =  33  type =  2  l = 2
 
 onsite density matrix
 
spin component  1
 
  0.9926  0.0000  0.0000  0.0000  0.0000
  0.0000  0.9926  0.0000  0.0000  0.0000
  0.0000  0.0000  0.9926  0.0000  0.0000
  0.0000  0.0000  0.0000  0.9926  0.0000
  0.0000  0.0000  0.0000  0.0000  0.9926
 
spin component  2
 
  0.9926  0.0000  0.0000  0.0000  0.0000
  0.0000  0.9926  0.0000  0.0000  0.0000
  0.0000  0.0000  0.9926  0.0000  0.0000
  0.0000  0.0000  0.0000  0.9926  0.0000
  0.0000  0.0000  0.0000  0.0000  0.9926
 
 occupancies and eigenvectors
 
  o =  0.9926  v =  1.0000  0.0000  0.0000  0.0000  0.0000  0.0000  0.0000  0.0000  0.0000  0.0000      0.0000  0.0000  0.0000  0.0000  0.0000  0.0000  0.0000  0.0000  0.0000  0.0000
  o =  0.9926  v =  0.0000  1.0000  0.0000  0.0000  0.0000  0.0000  0.0000  0.0000  0.0000  0.0000      0.0000  0.0000  0.0000  0.0000  0.0000  0.0000  0.0000  0.0000  0.0000  0.0000
  o =  0.9926  v =  0.0000  0.0000  1.0000  0.0000  0.0000  0.0000  0.0000  0.0000  0.0000  0.0000      0.0000  0.0000  0.0000  0.0000  0.0000  0.0000  0.0000  0.0000  0.0000  0.0000
  o =  0.9926  v =  0.0000  0.0000  0.0000  1.0000  0.0000  0.0000  0.0000  0.0000  0.0000  0.0000      0.0000  0.0000  0.0000  0.0000  0.0000  0.0000  0.0000  0.0000  0.0000  0.0000
  o =  0.9926  v =  0.0000  0.0000  0.0000  0.0000  1.0000  0.0000  0.0000  0.0000  0.0000  0.0000      0.0000  0.0000  0.0000  0.0000  0.0000  0.0000  0.0000  0.0000  0.0000  0.0000
  o =  0.9926  v =  0.0000  0.0000  0.0000  0.0000  0.0000  1.0000  0.0000  0.0000  0.0000  0.0000      0.0000  0.0000  0.0000  0.0000  0.0000  0.0000  0.0000  0.0000  0.0000  0.0000
  o =  0.9926  v =  0.0000  0.0000  0.0000  0.0000  0.0000  0.0000  1.0000  0.0000  0.0000  0.0000      0.0000  0.0000  0.0000  0.0000  0.0000  0.0000  0.0000  0.0000  0.0000  0.0000
  o =  0.9926  v =  0.0000  0.0000  0.0000  0.0000  0.0000  0.0000  0.0000  1.0000  0.0000  0.0000      0.0000  0.0000  0.0000  0.0000  0.0000  0.0000  0.0000  0.0000  0.0000  0.0000
  o =  0.9926  v =  0.0000  0.0000  0.0000  0.0000  0.0000  0.0000  0.0000  0.0000  1.0000  0.0000      0.0000  0.0000  0.0000  0.0000  0.0000  0.0000  0.0000  0.0000  0.0000  0.0000
  o =  0.9926  v =  0.0000  0.0000  0.0000  0.0000  0.0000  0.0000  0.0000  0.0000  0.0000  1.0000      0.0000  0.0000  0.0000  0.0000  0.0000  0.0000  0.0000  0.0000  0.0000  0.0000
atom =  34  type =  2  l = 2
 
 onsite density matrix
 
spin component  1
 
  0.9926  0.0000  0.0000  0.0000  0.0000
  0.0000  0.9926  0.0000  0.0000  0.0000
  0.0000  0.0000  0.9926  0.0000  0.0000
  0.0000  0.0000  0.0000  0.9926  0.0000
  0.0000  0.0000  0.0000  0.0000  0.9926
 
spin component  2
 
  0.9926  0.0000  0.0000  0.0000  0.0000
  0.0000  0.9926  0.0000  0.0000  0.0000
  0.0000  0.0000  0.9926  0.0000  0.0000
  0.0000  0.0000  0.0000  0.9926  0.0000
  0.0000  0.0000  0.0000  0.0000  0.9926
 
 occupancies and eigenvectors
 
  o =  0.9926  v =  1.0000  0.0000  0.0000  0.0000  0.0000  0.0000  0.0000  0.0000  0.0000  0.0000      0.0000  0.0000  0.0000  0.0000  0.0000  0.0000  0.0000  0.0000  0.0000  0.0000
  o =  0.9926  v =  0.0000  1.0000  0.0000  0.0000  0.0000  0.0000  0.0000  0.0000  0.0000  0.0000      0.0000  0.0000  0.0000  0.0000  0.0000  0.0000  0.0000  0.0000  0.0000  0.0000
  o =  0.9926  v =  0.0000  0.0000  1.0000  0.0000  0.0000  0.0000  0.0000  0.0000  0.0000  0.0000      0.0000  0.0000  0.0000  0.0000  0.0000  0.0000  0.0000  0.0000  0.0000  0.0000
  o =  0.9926  v =  0.0000  0.0000  0.0000  1.0000  0.0000  0.0000  0.0000  0.0000  0.0000  0.0000      0.0000  0.0000  0.0000  0.0000  0.0000  0.0000  0.0000  0.0000  0.0000  0.0000
  o =  0.9926  v =  0.0000  0.0000  0.0000  0.0000  1.0000  0.0000  0.0000  0.0000  0.0000  0.0000      0.0000  0.0000  0.0000  0.0000  0.0000  0.0000  0.0000  0.0000  0.0000  0.0000
  o =  0.9926  v =  0.0000  0.0000  0.0000  0.0000  0.0000  1.0000  0.0000  0.0000  0.0000  0.0000      0.0000  0.0000  0.0000  0.0000  0.0000  0.0000  0.0000  0.0000  0.0000  0.0000
  o =  0.9926  v =  0.0000  0.0000  0.0000  0.0000  0.0000  0.0000  1.0000  0.0000  0.0000  0.0000      0.0000  0.0000  0.0000  0.0000  0.0000  0.0000  0.0000  0.0000  0.0000  0.0000
  o =  0.9926  v =  0.0000  0.0000  0.0000  0.0000  0.0000  0.0000  0.0000  1.0000  0.0000  0.0000      0.0000  0.0000  0.0000  0.0000  0.0000  0.0000  0.0000  0.0000  0.0000  0.0000
  o =  0.9926  v =  0.0000  0.0000  0.0000  0.0000  0.0000  0.0000  0.0000  0.0000  1.0000  0.0000      0.0000  0.0000  0.0000  0.0000  0.0000  0.0000  0.0000  0.0000  0.0000  0.0000
  o =  0.9926  v =  0.0000  0.0000  0.0000  0.0000  0.0000  0.0000  0.0000  0.0000  0.0000  1.0000      0.0000  0.0000  0.0000  0.0000  0.0000  0.0000  0.0000  0.0000  0.0000  0.0000
atom =  35  type =  2  l = 2
 
 onsite density matrix
 
spin component  1
 
  0.9926  0.0000  0.0000  0.0000  0.0000
  0.0000  0.9926  0.0000  0.0000  0.0000
  0.0000  0.0000  0.9926  0.0000  0.0000
  0.0000  0.0000  0.0000  0.9926  0.0000
  0.0000  0.0000  0.0000  0.0000  0.9926
 
spin component  2
 
  0.9926  0.0000  0.0000  0.0000  0.0000
  0.0000  0.9926  0.0000  0.0000  0.0000
  0.0000  0.0000  0.9926  0.0000  0.0000
  0.0000  0.0000  0.0000  0.9926  0.0000
  0.0000  0.0000  0.0000  0.0000  0.9926
 
 occupancies and eigenvectors
 
  o =  0.9926  v =  1.0000  0.0000  0.0000  0.0000  0.0000  0.0000  0.0000  0.0000  0.0000  0.0000      0.0000  0.0000  0.0000  0.0000  0.0000  0.0000  0.0000  0.0000  0.0000  0.0000
  o =  0.9926  v =  0.0000  1.0000  0.0000  0.0000  0.0000  0.0000  0.0000  0.0000  0.0000  0.0000      0.0000  0.0000  0.0000  0.0000  0.0000  0.0000  0.0000  0.0000  0.0000  0.0000
  o =  0.9926  v =  0.0000  0.0000  1.0000  0.0000  0.0000  0.0000  0.0000  0.0000  0.0000  0.0000      0.0000  0.0000  0.0000  0.0000  0.0000  0.0000  0.0000  0.0000  0.0000  0.0000
  o =  0.9926  v =  0.0000  0.0000  0.0000  1.0000  0.0000  0.0000  0.0000  0.0000  0.0000  0.0000      0.0000  0.0000  0.0000  0.0000  0.0000  0.0000  0.0000  0.0000  0.0000  0.0000
  o =  0.9926  v =  0.0000  0.0000  0.0000  0.0000  1.0000  0.0000  0.0000  0.0000  0.0000  0.0000      0.0000  0.0000  0.0000  0.0000  0.0000  0.0000  0.0000  0.0000  0.0000  0.0000
  o =  0.9926  v =  0.0000  0.0000  0.0000  0.0000  0.0000  1.0000  0.0000  0.0000  0.0000  0.0000      0.0000  0.0000  0.0000  0.0000  0.0000  0.0000  0.0000  0.0000  0.0000  0.0000
  o =  0.9926  v =  0.0000  0.0000  0.0000  0.0000  0.0000  0.0000  1.0000  0.0000  0.0000  0.0000      0.0000  0.0000  0.0000  0.0000  0.0000  0.0000  0.0000  0.0000  0.0000  0.0000
  o =  0.9926  v =  0.0000  0.0000  0.0000  0.0000  0.0000  0.0000  0.0000  1.0000  0.0000  0.0000      0.0000  0.0000  0.0000  0.0000  0.0000  0.0000  0.0000  0.0000  0.0000  0.0000
  o =  0.9926  v =  0.0000  0.0000  0.0000  0.0000  0.0000  0.0000  0.0000  0.0000  1.0000  0.0000      0.0000  0.0000  0.0000  0.0000  0.0000  0.0000  0.0000  0.0000  0.0000  0.0000
  o =  0.9926  v =  0.0000  0.0000  0.0000  0.0000  0.0000  0.0000  0.0000  0.0000  0.0000  1.0000      0.0000  0.0000  0.0000  0.0000  0.0000  0.0000  0.0000  0.0000  0.0000  0.0000
atom =  36  type =  2  l = 2
 
 onsite density matrix
 
spin component  1
 
  0.9926  0.0000  0.0000  0.0000  0.0000
  0.0000  0.9926  0.0000  0.0000  0.0000
  0.0000  0.0000  0.9926  0.0000  0.0000
  0.0000  0.0000  0.0000  0.9926  0.0000
  0.0000  0.0000  0.0000  0.0000  0.9926
 
spin component  2
 
  0.9926  0.0000  0.0000  0.0000  0.0000
  0.0000  0.9926  0.0000  0.0000  0.0000
  0.0000  0.0000  0.9926  0.0000  0.0000
  0.0000  0.0000  0.0000  0.9926  0.0000
  0.0000  0.0000  0.0000  0.0000  0.9926
 
 occupancies and eigenvectors
 
  o =  0.9926  v =  1.0000  0.0000  0.0000  0.0000  0.0000  0.0000  0.0000  0.0000  0.0000  0.0000      0.0000  0.0000  0.0000  0.0000  0.0000  0.0000  0.0000  0.0000  0.0000  0.0000
  o =  0.9926  v =  0.0000  1.0000  0.0000  0.0000  0.0000  0.0000  0.0000  0.0000  0.0000  0.0000      0.0000  0.0000  0.0000  0.0000  0.0000  0.0000  0.0000  0.0000  0.0000  0.0000
  o =  0.9926  v =  0.0000  0.0000  1.0000  0.0000  0.0000  0.0000  0.0000  0.0000  0.0000  0.0000      0.0000  0.0000  0.0000  0.0000  0.0000  0.0000  0.0000  0.0000  0.0000  0.0000
  o =  0.9926  v =  0.0000  0.0000  0.0000  1.0000  0.0000  0.0000  0.0000  0.0000  0.0000  0.0000      0.0000  0.0000  0.0000  0.0000  0.0000  0.0000  0.0000  0.0000  0.0000  0.0000
  o =  0.9926  v =  0.0000  0.0000  0.0000  0.0000  1.0000  0.0000  0.0000  0.0000  0.0000  0.0000      0.0000  0.0000  0.0000  0.0000  0.0000  0.0000  0.0000  0.0000  0.0000  0.0000
  o =  0.9926  v =  0.0000  0.0000  0.0000  0.0000  0.0000  1.0000  0.0000  0.0000  0.0000  0.0000      0.0000  0.0000  0.0000  0.0000  0.0000  0.0000  0.0000  0.0000  0.0000  0.0000
  o =  0.9926  v =  0.0000  0.0000  0.0000  0.0000  0.0000  0.0000  1.0000  0.0000  0.0000  0.0000      0.0000  0.0000  0.0000  0.0000  0.0000  0.0000  0.0000  0.0000  0.0000  0.0000
  o =  0.9926  v =  0.0000  0.0000  0.0000  0.0000  0.0000  0.0000  0.0000  1.0000  0.0000  0.0000      0.0000  0.0000  0.0000  0.0000  0.0000  0.0000  0.0000  0.0000  0.0000  0.0000
  o =  0.9926  v =  0.0000  0.0000  0.0000  0.0000  0.0000  0.0000  0.0000  0.0000  1.0000  0.0000      0.0000  0.0000  0.0000  0.0000  0.0000  0.0000  0.0000  0.0000  0.0000  0.0000
  o =  0.9926  v =  0.0000  0.0000  0.0000  0.0000  0.0000  0.0000  0.0000  0.0000  0.0000  1.0000      0.0000  0.0000  0.0000  0.0000  0.0000  0.0000  0.0000  0.0000  0.0000  0.0000
atom =  37  type =  2  l = 2
 
 onsite density matrix
 
spin component  1
 
  0.9926  0.0000  0.0000  0.0000  0.0000
  0.0000  0.9926  0.0000  0.0000  0.0000
  0.0000  0.0000  0.9926  0.0000  0.0000
  0.0000  0.0000  0.0000  0.9926  0.0000
  0.0000  0.0000  0.0000  0.0000  0.9926
 
spin component  2
 
  0.9926  0.0000  0.0000  0.0000  0.0000
  0.0000  0.9926  0.0000  0.0000  0.0000
  0.0000  0.0000  0.9926  0.0000  0.0000
  0.0000  0.0000  0.0000  0.9926  0.0000
  0.0000  0.0000  0.0000  0.0000  0.9926
 
 occupancies and eigenvectors
 
  o =  0.9926  v =  1.0000  0.0000  0.0000  0.0000  0.0000  0.0000  0.0000  0.0000  0.0000  0.0000      0.0000  0.0000  0.0000  0.0000  0.0000  0.0000  0.0000  0.0000  0.0000  0.0000
  o =  0.9926  v =  0.0000  1.0000  0.0000  0.0000  0.0000  0.0000  0.0000  0.0000  0.0000  0.0000      0.0000  0.0000  0.0000  0.0000  0.0000  0.0000  0.0000  0.0000  0.0000  0.0000
  o =  0.9926  v =  0.0000  0.0000  1.0000  0.0000  0.0000  0.0000  0.0000  0.0000  0.0000  0.0000      0.0000  0.0000  0.0000  0.0000  0.0000  0.0000  0.0000  0.0000  0.0000  0.0000
  o =  0.9926  v =  0.0000  0.0000  0.0000  1.0000  0.0000  0.0000  0.0000  0.0000  0.0000  0.0000      0.0000  0.0000  0.0000  0.0000  0.0000  0.0000  0.0000  0.0000  0.0000  0.0000
  o =  0.9926  v =  0.0000  0.0000  0.0000  0.0000  1.0000  0.0000  0.0000  0.0000  0.0000  0.0000      0.0000  0.0000  0.0000  0.0000  0.0000  0.0000  0.0000  0.0000  0.0000  0.0000
  o =  0.9926  v =  0.0000  0.0000  0.0000  0.0000  0.0000  1.0000  0.0000  0.0000  0.0000  0.0000      0.0000  0.0000  0.0000  0.0000  0.0000  0.0000  0.0000  0.0000  0.0000  0.0000
  o =  0.9926  v =  0.0000  0.0000  0.0000  0.0000  0.0000  0.0000  1.0000  0.0000  0.0000  0.0000      0.0000  0.0000  0.0000  0.0000  0.0000  0.0000  0.0000  0.0000  0.0000  0.0000
  o =  0.9926  v =  0.0000  0.0000  0.0000  0.0000  0.0000  0.0000  0.0000  1.0000  0.0000  0.0000      0.0000  0.0000  0.0000  0.0000  0.0000  0.0000  0.0000  0.0000  0.0000  0.0000
  o =  0.9926  v =  0.0000  0.0000  0.0000  0.0000  0.0000  0.0000  0.0000  0.0000  1.0000  0.0000      0.0000  0.0000  0.0000  0.0000  0.0000  0.0000  0.0000  0.0000  0.0000  0.0000
  o =  0.9926  v =  0.0000  0.0000  0.0000  0.0000  0.0000  0.0000  0.0000  0.0000  0.0000  1.0000      0.0000  0.0000  0.0000  0.0000  0.0000  0.0000  0.0000  0.0000  0.0000  0.0000
atom =  38  type =  2  l = 2
 
 onsite density matrix
 
spin component  1
 
  0.9926  0.0000  0.0000  0.0000  0.0000
  0.0000  0.9926  0.0000  0.0000  0.0000
  0.0000  0.0000  0.9926  0.0000  0.0000
  0.0000  0.0000  0.0000  0.9926  0.0000
  0.0000  0.0000  0.0000  0.0000  0.9926
 
spin component  2
 
  0.9926  0.0000  0.0000  0.0000  0.0000
  0.0000  0.9926  0.0000  0.0000  0.0000
  0.0000  0.0000  0.9926  0.0000  0.0000
  0.0000  0.0000  0.0000  0.9926  0.0000
  0.0000  0.0000  0.0000  0.0000  0.9926
 
 occupancies and eigenvectors
 
  o =  0.9926  v =  1.0000  0.0000  0.0000  0.0000  0.0000  0.0000  0.0000  0.0000  0.0000  0.0000      0.0000  0.0000  0.0000  0.0000  0.0000  0.0000  0.0000  0.0000  0.0000  0.0000
  o =  0.9926  v =  0.0000  1.0000  0.0000  0.0000  0.0000  0.0000  0.0000  0.0000  0.0000  0.0000      0.0000  0.0000  0.0000  0.0000  0.0000  0.0000  0.0000  0.0000  0.0000  0.0000
  o =  0.9926  v =  0.0000  0.0000  1.0000  0.0000  0.0000  0.0000  0.0000  0.0000  0.0000  0.0000      0.0000  0.0000  0.0000  0.0000  0.0000  0.0000  0.0000  0.0000  0.0000  0.0000
  o =  0.9926  v =  0.0000  0.0000  0.0000  1.0000  0.0000  0.0000  0.0000  0.0000  0.0000  0.0000      0.0000  0.0000  0.0000  0.0000  0.0000  0.0000  0.0000  0.0000  0.0000  0.0000
  o =  0.9926  v =  0.0000  0.0000  0.0000  0.0000  1.0000  0.0000  0.0000  0.0000  0.0000  0.0000      0.0000  0.0000  0.0000  0.0000  0.0000  0.0000  0.0000  0.0000  0.0000  0.0000
  o =  0.9926  v =  0.0000  0.0000  0.0000  0.0000  0.0000  1.0000  0.0000  0.0000  0.0000  0.0000      0.0000  0.0000  0.0000  0.0000  0.0000  0.0000  0.0000  0.0000  0.0000  0.0000
  o =  0.9926  v =  0.0000  0.0000  0.0000  0.0000  0.0000  0.0000  1.0000  0.0000  0.0000  0.0000      0.0000  0.0000  0.0000  0.0000  0.0000  0.0000  0.0000  0.0000  0.0000  0.0000
  o =  0.9926  v =  0.0000  0.0000  0.0000  0.0000  0.0000  0.0000  0.0000  1.0000  0.0000  0.0000      0.0000  0.0000  0.0000  0.0000  0.0000  0.0000  0.0000  0.0000  0.0000  0.0000
  o =  0.9926  v =  0.0000  0.0000  0.0000  0.0000  0.0000  0.0000  0.0000  0.0000  1.0000  0.0000      0.0000  0.0000  0.0000  0.0000  0.0000  0.0000  0.0000  0.0000  0.0000  0.0000
  o =  0.9926  v =  0.0000  0.0000  0.0000  0.0000  0.0000  0.0000  0.0000  0.0000  0.0000  1.0000      0.0000  0.0000  0.0000  0.0000  0.0000  0.0000  0.0000  0.0000  0.0000  0.0000
atom =  39  type =  2  l = 2
 
 onsite density matrix
 
spin component  1
 
  0.9926  0.0000  0.0000  0.0000  0.0000
  0.0000  0.9926  0.0000  0.0000  0.0000
  0.0000  0.0000  0.9926  0.0000  0.0000
  0.0000  0.0000  0.0000  0.9926  0.0000
  0.0000  0.0000  0.0000  0.0000  0.9926
 
spin component  2
 
  0.9926  0.0000  0.0000  0.0000  0.0000
  0.0000  0.9926  0.0000  0.0000  0.0000
  0.0000  0.0000  0.9926  0.0000  0.0000
  0.0000  0.0000  0.0000  0.9926  0.0000
  0.0000  0.0000  0.0000  0.0000  0.9926
 
 occupancies and eigenvectors
 
  o =  0.9926  v =  1.0000  0.0000  0.0000  0.0000  0.0000  0.0000  0.0000  0.0000  0.0000  0.0000      0.0000  0.0000  0.0000  0.0000  0.0000  0.0000  0.0000  0.0000  0.0000  0.0000
  o =  0.9926  v =  0.0000  1.0000  0.0000  0.0000  0.0000  0.0000  0.0000  0.0000  0.0000  0.0000      0.0000  0.0000  0.0000  0.0000  0.0000  0.0000  0.0000  0.0000  0.0000  0.0000
  o =  0.9926  v =  0.0000  0.0000  1.0000  0.0000  0.0000  0.0000  0.0000  0.0000  0.0000  0.0000      0.0000  0.0000  0.0000  0.0000  0.0000  0.0000  0.0000  0.0000  0.0000  0.0000
  o =  0.9926  v =  0.0000  0.0000  0.0000  1.0000  0.0000  0.0000  0.0000  0.0000  0.0000  0.0000      0.0000  0.0000  0.0000  0.0000  0.0000  0.0000  0.0000  0.0000  0.0000  0.0000
  o =  0.9926  v =  0.0000  0.0000  0.0000  0.0000  1.0000  0.0000  0.0000  0.0000  0.0000  0.0000      0.0000  0.0000  0.0000  0.0000  0.0000  0.0000  0.0000  0.0000  0.0000  0.0000
  o =  0.9926  v =  0.0000  0.0000  0.0000  0.0000  0.0000  1.0000  0.0000  0.0000  0.0000  0.0000      0.0000  0.0000  0.0000  0.0000  0.0000  0.0000  0.0000  0.0000  0.0000  0.0000
  o =  0.9926  v =  0.0000  0.0000  0.0000  0.0000  0.0000  0.0000  1.0000  0.0000  0.0000  0.0000      0.0000  0.0000  0.0000  0.0000  0.0000  0.0000  0.0000  0.0000  0.0000  0.0000
  o =  0.9926  v =  0.0000  0.0000  0.0000  0.0000  0.0000  0.0000  0.0000  1.0000  0.0000  0.0000      0.0000  0.0000  0.0000  0.0000  0.0000  0.0000  0.0000  0.0000  0.0000  0.0000
  o =  0.9926  v =  0.0000  0.0000  0.0000  0.0000  0.0000  0.0000  0.0000  0.0000  1.0000  0.0000      0.0000  0.0000  0.0000  0.0000  0.0000  0.0000  0.0000  0.0000  0.0000  0.0000
  o =  0.9926  v =  0.0000  0.0000  0.0000  0.0000  0.0000  0.0000  0.0000  0.0000  0.0000  1.0000      0.0000  0.0000  0.0000  0.0000  0.0000  0.0000  0.0000  0.0000  0.0000  0.0000
atom =  40  type =  2  l = 2
 
 onsite density matrix
 
spin component  1
 
  0.9926  0.0000  0.0000  0.0000  0.0000
  0.0000  0.9926  0.0000  0.0000  0.0000
  0.0000  0.0000  0.9926  0.0000  0.0000
  0.0000  0.0000  0.0000  0.9926  0.0000
  0.0000  0.0000  0.0000  0.0000  0.9926
 
spin component  2
 
  0.9926  0.0000  0.0000  0.0000  0.0000
  0.0000  0.9926  0.0000  0.0000  0.0000
  0.0000  0.0000  0.9926  0.0000  0.0000
  0.0000  0.0000  0.0000  0.9926  0.0000
  0.0000  0.0000  0.0000  0.0000  0.9926
 
 occupancies and eigenvectors
 
  o =  0.9926  v =  1.0000  0.0000  0.0000  0.0000  0.0000  0.0000  0.0000  0.0000  0.0000  0.0000      0.0000  0.0000  0.0000  0.0000  0.0000  0.0000  0.0000  0.0000  0.0000  0.0000
  o =  0.9926  v =  0.0000  1.0000  0.0000  0.0000  0.0000  0.0000  0.0000  0.0000  0.0000  0.0000      0.0000  0.0000  0.0000  0.0000  0.0000  0.0000  0.0000  0.0000  0.0000  0.0000
  o =  0.9926  v =  0.0000  0.0000  1.0000  0.0000  0.0000  0.0000  0.0000  0.0000  0.0000  0.0000      0.0000  0.0000  0.0000  0.0000  0.0000  0.0000  0.0000  0.0000  0.0000  0.0000
  o =  0.9926  v =  0.0000  0.0000  0.0000  1.0000  0.0000  0.0000  0.0000  0.0000  0.0000  0.0000      0.0000  0.0000  0.0000  0.0000  0.0000  0.0000  0.0000  0.0000  0.0000  0.0000
  o =  0.9926  v =  0.0000  0.0000  0.0000  0.0000  1.0000  0.0000  0.0000  0.0000  0.0000  0.0000      0.0000  0.0000  0.0000  0.0000  0.0000  0.0000  0.0000  0.0000  0.0000  0.0000
  o =  0.9926  v =  0.0000  0.0000  0.0000  0.0000  0.0000  1.0000  0.0000  0.0000  0.0000  0.0000      0.0000  0.0000  0.0000  0.0000  0.0000  0.0000  0.0000  0.0000  0.0000  0.0000
  o =  0.9926  v =  0.0000  0.0000  0.0000  0.0000  0.0000  0.0000  1.0000  0.0000  0.0000  0.0000      0.0000  0.0000  0.0000  0.0000  0.0000  0.0000  0.0000  0.0000  0.0000  0.0000
  o =  0.9926  v =  0.0000  0.0000  0.0000  0.0000  0.0000  0.0000  0.0000  1.0000  0.0000  0.0000      0.0000  0.0000  0.0000  0.0000  0.0000  0.0000  0.0000  0.0000  0.0000  0.0000
  o =  0.9926  v =  0.0000  0.0000  0.0000  0.0000  0.0000  0.0000  0.0000  0.0000  1.0000  0.0000      0.0000  0.0000  0.0000  0.0000  0.0000  0.0000  0.0000  0.0000  0.0000  0.0000
  o =  0.9926  v =  0.0000  0.0000  0.0000  0.0000  0.0000  0.0000  0.0000  0.0000  0.0000  1.0000      0.0000  0.0000  0.0000  0.0000  0.0000  0.0000  0.0000  0.0000  0.0000  0.0000
atom =  41  type =  2  l = 2
 
 onsite density matrix
 
spin component  1
 
  0.9926  0.0000  0.0000  0.0000  0.0000
  0.0000  0.9926  0.0000  0.0000  0.0000
  0.0000  0.0000  0.9926  0.0000  0.0000
  0.0000  0.0000  0.0000  0.9926  0.0000
  0.0000  0.0000  0.0000  0.0000  0.9926
 
spin component  2
 
  0.9926  0.0000  0.0000  0.0000  0.0000
  0.0000  0.9926  0.0000  0.0000  0.0000
  0.0000  0.0000  0.9926  0.0000  0.0000
  0.0000  0.0000  0.0000  0.9926  0.0000
  0.0000  0.0000  0.0000  0.0000  0.9926
 
 occupancies and eigenvectors
 
  o =  0.9926  v =  1.0000  0.0000  0.0000  0.0000  0.0000  0.0000  0.0000  0.0000  0.0000  0.0000      0.0000  0.0000  0.0000  0.0000  0.0000  0.0000  0.0000  0.0000  0.0000  0.0000
  o =  0.9926  v =  0.0000  1.0000  0.0000  0.0000  0.0000  0.0000  0.0000  0.0000  0.0000  0.0000      0.0000  0.0000  0.0000  0.0000  0.0000  0.0000  0.0000  0.0000  0.0000  0.0000
  o =  0.9926  v =  0.0000  0.0000  1.0000  0.0000  0.0000  0.0000  0.0000  0.0000  0.0000  0.0000      0.0000  0.0000  0.0000  0.0000  0.0000  0.0000  0.0000  0.0000  0.0000  0.0000
  o =  0.9926  v =  0.0000  0.0000  0.0000  1.0000  0.0000  0.0000  0.0000  0.0000  0.0000  0.0000      0.0000  0.0000  0.0000  0.0000  0.0000  0.0000  0.0000  0.0000  0.0000  0.0000
  o =  0.9926  v =  0.0000  0.0000  0.0000  0.0000  1.0000  0.0000  0.0000  0.0000  0.0000  0.0000      0.0000  0.0000  0.0000  0.0000  0.0000  0.0000  0.0000  0.0000  0.0000  0.0000
  o =  0.9926  v =  0.0000  0.0000  0.0000  0.0000  0.0000  1.0000  0.0000  0.0000  0.0000  0.0000      0.0000  0.0000  0.0000  0.0000  0.0000  0.0000  0.0000  0.0000  0.0000  0.0000
  o =  0.9926  v =  0.0000  0.0000  0.0000  0.0000  0.0000  0.0000  1.0000  0.0000  0.0000  0.0000      0.0000  0.0000  0.0000  0.0000  0.0000  0.0000  0.0000  0.0000  0.0000  0.0000
  o =  0.9926  v =  0.0000  0.0000  0.0000  0.0000  0.0000  0.0000  0.0000  1.0000  0.0000  0.0000      0.0000  0.0000  0.0000  0.0000  0.0000  0.0000  0.0000  0.0000  0.0000  0.0000
  o =  0.9926  v =  0.0000  0.0000  0.0000  0.0000  0.0000  0.0000  0.0000  0.0000  1.0000  0.0000      0.0000  0.0000  0.0000  0.0000  0.0000  0.0000  0.0000  0.0000  0.0000  0.0000
  o =  0.9926  v =  0.0000  0.0000  0.0000  0.0000  0.0000  0.0000  0.0000  0.0000  0.0000  1.0000      0.0000  0.0000  0.0000  0.0000  0.0000  0.0000  0.0000  0.0000  0.0000  0.0000
atom =  42  type =  2  l = 2
 
 onsite density matrix
 
spin component  1
 
  0.9926  0.0000  0.0000  0.0000  0.0000
  0.0000  0.9926  0.0000  0.0000  0.0000
  0.0000  0.0000  0.9926  0.0000  0.0000
  0.0000  0.0000  0.0000  0.9926  0.0000
  0.0000  0.0000  0.0000  0.0000  0.9926
 
spin component  2
 
  0.9926  0.0000  0.0000  0.0000  0.0000
  0.0000  0.9926  0.0000  0.0000  0.0000
  0.0000  0.0000  0.9926  0.0000  0.0000
  0.0000  0.0000  0.0000  0.9926  0.0000
  0.0000  0.0000  0.0000  0.0000  0.9926
 
 occupancies and eigenvectors
 
  o =  0.9926  v =  1.0000  0.0000  0.0000  0.0000  0.0000  0.0000  0.0000  0.0000  0.0000  0.0000      0.0000  0.0000  0.0000  0.0000  0.0000  0.0000  0.0000  0.0000  0.0000  0.0000
  o =  0.9926  v =  0.0000  1.0000  0.0000  0.0000  0.0000  0.0000  0.0000  0.0000  0.0000  0.0000      0.0000  0.0000  0.0000  0.0000  0.0000  0.0000  0.0000  0.0000  0.0000  0.0000
  o =  0.9926  v =  0.0000  0.0000  1.0000  0.0000  0.0000  0.0000  0.0000  0.0000  0.0000  0.0000      0.0000  0.0000  0.0000  0.0000  0.0000  0.0000  0.0000  0.0000  0.0000  0.0000
  o =  0.9926  v =  0.0000  0.0000  0.0000  1.0000  0.0000  0.0000  0.0000  0.0000  0.0000  0.0000      0.0000  0.0000  0.0000  0.0000  0.0000  0.0000  0.0000  0.0000  0.0000  0.0000
  o =  0.9926  v =  0.0000  0.0000  0.0000  0.0000  1.0000  0.0000  0.0000  0.0000  0.0000  0.0000      0.0000  0.0000  0.0000  0.0000  0.0000  0.0000  0.0000  0.0000  0.0000  0.0000
  o =  0.9926  v =  0.0000  0.0000  0.0000  0.0000  0.0000  1.0000  0.0000  0.0000  0.0000  0.0000      0.0000  0.0000  0.0000  0.0000  0.0000  0.0000  0.0000  0.0000  0.0000  0.0000
  o =  0.9926  v =  0.0000  0.0000  0.0000  0.0000  0.0000  0.0000  1.0000  0.0000  0.0000  0.0000      0.0000  0.0000  0.0000  0.0000  0.0000  0.0000  0.0000  0.0000  0.0000  0.0000
  o =  0.9926  v =  0.0000  0.0000  0.0000  0.0000  0.0000  0.0000  0.0000  1.0000  0.0000  0.0000      0.0000  0.0000  0.0000  0.0000  0.0000  0.0000  0.0000  0.0000  0.0000  0.0000
  o =  0.9926  v =  0.0000  0.0000  0.0000  0.0000  0.0000  0.0000  0.0000  0.0000  1.0000  0.0000      0.0000  0.0000  0.0000  0.0000  0.0000  0.0000  0.0000  0.0000  0.0000  0.0000
  o =  0.9926  v =  0.0000  0.0000  0.0000  0.0000  0.0000  0.0000  0.0000  0.0000  0.0000  1.0000      0.0000  0.0000  0.0000  0.0000  0.0000  0.0000  0.0000  0.0000  0.0000  0.0000
atom =  43  type =  2  l = 2
 
 onsite density matrix
 
spin component  1
 
  0.9926  0.0000  0.0000  0.0000  0.0000
  0.0000  0.9926  0.0000  0.0000  0.0000
  0.0000  0.0000  0.9926  0.0000  0.0000
  0.0000  0.0000  0.0000  0.9926  0.0000
  0.0000  0.0000  0.0000  0.0000  0.9926
 
spin component  2
 
  0.9926  0.0000  0.0000  0.0000  0.0000
  0.0000  0.9926  0.0000  0.0000  0.0000
  0.0000  0.0000  0.9926  0.0000  0.0000
  0.0000  0.0000  0.0000  0.9926  0.0000
  0.0000  0.0000  0.0000  0.0000  0.9926
 
 occupancies and eigenvectors
 
  o =  0.9926  v =  1.0000  0.0000  0.0000  0.0000  0.0000  0.0000  0.0000  0.0000  0.0000  0.0000      0.0000  0.0000  0.0000  0.0000  0.0000  0.0000  0.0000  0.0000  0.0000  0.0000
  o =  0.9926  v =  0.0000  1.0000  0.0000  0.0000  0.0000  0.0000  0.0000  0.0000  0.0000  0.0000      0.0000  0.0000  0.0000  0.0000  0.0000  0.0000  0.0000  0.0000  0.0000  0.0000
  o =  0.9926  v =  0.0000  0.0000  1.0000  0.0000  0.0000  0.0000  0.0000  0.0000  0.0000  0.0000      0.0000  0.0000  0.0000  0.0000  0.0000  0.0000  0.0000  0.0000  0.0000  0.0000
  o =  0.9926  v =  0.0000  0.0000  0.0000  1.0000  0.0000  0.0000  0.0000  0.0000  0.0000  0.0000      0.0000  0.0000  0.0000  0.0000  0.0000  0.0000  0.0000  0.0000  0.0000  0.0000
  o =  0.9926  v =  0.0000  0.0000  0.0000  0.0000  1.0000  0.0000  0.0000  0.0000  0.0000  0.0000      0.0000  0.0000  0.0000  0.0000  0.0000  0.0000  0.0000  0.0000  0.0000  0.0000
  o =  0.9926  v =  0.0000  0.0000  0.0000  0.0000  0.0000  1.0000  0.0000  0.0000  0.0000  0.0000      0.0000  0.0000  0.0000  0.0000  0.0000  0.0000  0.0000  0.0000  0.0000  0.0000
  o =  0.9926  v =  0.0000  0.0000  0.0000  0.0000  0.0000  0.0000  1.0000  0.0000  0.0000  0.0000      0.0000  0.0000  0.0000  0.0000  0.0000  0.0000  0.0000  0.0000  0.0000  0.0000
  o =  0.9926  v =  0.0000  0.0000  0.0000  0.0000  0.0000  0.0000  0.0000  1.0000  0.0000  0.0000      0.0000  0.0000  0.0000  0.0000  0.0000  0.0000  0.0000  0.0000  0.0000  0.0000
  o =  0.9926  v =  0.0000  0.0000  0.0000  0.0000  0.0000  0.0000  0.0000  0.0000  1.0000  0.0000      0.0000  0.0000  0.0000  0.0000  0.0000  0.0000  0.0000  0.0000  0.0000  0.0000
  o =  0.9926  v =  0.0000  0.0000  0.0000  0.0000  0.0000  0.0000  0.0000  0.0000  0.0000  1.0000      0.0000  0.0000  0.0000  0.0000  0.0000  0.0000  0.0000  0.0000  0.0000  0.0000
atom =  44  type =  2  l = 2
 
 onsite density matrix
 
spin component  1
 
  0.9926  0.0000  0.0000  0.0000  0.0000
  0.0000  0.9926  0.0000  0.0000  0.0000
  0.0000  0.0000  0.9926  0.0000  0.0000
  0.0000  0.0000  0.0000  0.9926  0.0000
  0.0000  0.0000  0.0000  0.0000  0.9926
 
spin component  2
 
  0.9926  0.0000  0.0000  0.0000  0.0000
  0.0000  0.9926  0.0000  0.0000  0.0000
  0.0000  0.0000  0.9926  0.0000  0.0000
  0.0000  0.0000  0.0000  0.9926  0.0000
  0.0000  0.0000  0.0000  0.0000  0.9926
 
 occupancies and eigenvectors
 
  o =  0.9926  v =  1.0000  0.0000  0.0000  0.0000  0.0000  0.0000  0.0000  0.0000  0.0000  0.0000      0.0000  0.0000  0.0000  0.0000  0.0000  0.0000  0.0000  0.0000  0.0000  0.0000
  o =  0.9926  v =  0.0000  1.0000  0.0000  0.0000  0.0000  0.0000  0.0000  0.0000  0.0000  0.0000      0.0000  0.0000  0.0000  0.0000  0.0000  0.0000  0.0000  0.0000  0.0000  0.0000
  o =  0.9926  v =  0.0000  0.0000  1.0000  0.0000  0.0000  0.0000  0.0000  0.0000  0.0000  0.0000      0.0000  0.0000  0.0000  0.0000  0.0000  0.0000  0.0000  0.0000  0.0000  0.0000
  o =  0.9926  v =  0.0000  0.0000  0.0000  1.0000  0.0000  0.0000  0.0000  0.0000  0.0000  0.0000      0.0000  0.0000  0.0000  0.0000  0.0000  0.0000  0.0000  0.0000  0.0000  0.0000
  o =  0.9926  v =  0.0000  0.0000  0.0000  0.0000  1.0000  0.0000  0.0000  0.0000  0.0000  0.0000      0.0000  0.0000  0.0000  0.0000  0.0000  0.0000  0.0000  0.0000  0.0000  0.0000
  o =  0.9926  v =  0.0000  0.0000  0.0000  0.0000  0.0000  1.0000  0.0000  0.0000  0.0000  0.0000      0.0000  0.0000  0.0000  0.0000  0.0000  0.0000  0.0000  0.0000  0.0000  0.0000
  o =  0.9926  v =  0.0000  0.0000  0.0000  0.0000  0.0000  0.0000  1.0000  0.0000  0.0000  0.0000      0.0000  0.0000  0.0000  0.0000  0.0000  0.0000  0.0000  0.0000  0.0000  0.0000
  o =  0.9926  v =  0.0000  0.0000  0.0000  0.0000  0.0000  0.0000  0.0000  1.0000  0.0000  0.0000      0.0000  0.0000  0.0000  0.0000  0.0000  0.0000  0.0000  0.0000  0.0000  0.0000
  o =  0.9926  v =  0.0000  0.0000  0.0000  0.0000  0.0000  0.0000  0.0000  0.0000  1.0000  0.0000      0.0000  0.0000  0.0000  0.0000  0.0000  0.0000  0.0000  0.0000  0.0000  0.0000
  o =  0.9926  v =  0.0000  0.0000  0.0000  0.0000  0.0000  0.0000  0.0000  0.0000  0.0000  1.0000      0.0000  0.0000  0.0000  0.0000  0.0000  0.0000  0.0000  0.0000  0.0000  0.0000
atom =  45  type =  2  l = 2
 
 onsite density matrix
 
spin component  1
 
  0.9926  0.0000  0.0000  0.0000  0.0000
  0.0000  0.9926  0.0000  0.0000  0.0000
  0.0000  0.0000  0.9926  0.0000  0.0000
  0.0000  0.0000  0.0000  0.9926  0.0000
  0.0000  0.0000  0.0000  0.0000  0.9926
 
spin component  2
 
  0.9926  0.0000  0.0000  0.0000  0.0000
  0.0000  0.9926  0.0000  0.0000  0.0000
  0.0000  0.0000  0.9926  0.0000  0.0000
  0.0000  0.0000  0.0000  0.9926  0.0000
  0.0000  0.0000  0.0000  0.0000  0.9926
 
 occupancies and eigenvectors
 
  o =  0.9926  v =  1.0000  0.0000  0.0000  0.0000  0.0000  0.0000  0.0000  0.0000  0.0000  0.0000      0.0000  0.0000  0.0000  0.0000  0.0000  0.0000  0.0000  0.0000  0.0000  0.0000
  o =  0.9926  v =  0.0000  1.0000  0.0000  0.0000  0.0000  0.0000  0.0000  0.0000  0.0000  0.0000      0.0000  0.0000  0.0000  0.0000  0.0000  0.0000  0.0000  0.0000  0.0000  0.0000
  o =  0.9926  v =  0.0000  0.0000  1.0000  0.0000  0.0000  0.0000  0.0000  0.0000  0.0000  0.0000      0.0000  0.0000  0.0000  0.0000  0.0000  0.0000  0.0000  0.0000  0.0000  0.0000
  o =  0.9926  v =  0.0000  0.0000  0.0000  1.0000  0.0000  0.0000  0.0000  0.0000  0.0000  0.0000      0.0000  0.0000  0.0000  0.0000  0.0000  0.0000  0.0000  0.0000  0.0000  0.0000
  o =  0.9926  v =  0.0000  0.0000  0.0000  0.0000  1.0000  0.0000  0.0000  0.0000  0.0000  0.0000      0.0000  0.0000  0.0000  0.0000  0.0000  0.0000  0.0000  0.0000  0.0000  0.0000
  o =  0.9926  v =  0.0000  0.0000  0.0000  0.0000  0.0000  1.0000  0.0000  0.0000  0.0000  0.0000      0.0000  0.0000  0.0000  0.0000  0.0000  0.0000  0.0000  0.0000  0.0000  0.0000
  o =  0.9926  v =  0.0000  0.0000  0.0000  0.0000  0.0000  0.0000  1.0000  0.0000  0.0000  0.0000      0.0000  0.0000  0.0000  0.0000  0.0000  0.0000  0.0000  0.0000  0.0000  0.0000
  o =  0.9926  v =  0.0000  0.0000  0.0000  0.0000  0.0000  0.0000  0.0000  1.0000  0.0000  0.0000      0.0000  0.0000  0.0000  0.0000  0.0000  0.0000  0.0000  0.0000  0.0000  0.0000
  o =  0.9926  v =  0.0000  0.0000  0.0000  0.0000  0.0000  0.0000  0.0000  0.0000  1.0000  0.0000      0.0000  0.0000  0.0000  0.0000  0.0000  0.0000  0.0000  0.0000  0.0000  0.0000
  o =  0.9926  v =  0.0000  0.0000  0.0000  0.0000  0.0000  0.0000  0.0000  0.0000  0.0000  1.0000      0.0000  0.0000  0.0000  0.0000  0.0000  0.0000  0.0000  0.0000  0.0000  0.0000
atom =  46  type =  2  l = 2
 
 onsite density matrix
 
spin component  1
 
  0.9926  0.0000  0.0000  0.0000  0.0000
  0.0000  0.9926  0.0000  0.0000  0.0000
  0.0000  0.0000  0.9926  0.0000  0.0000
  0.0000  0.0000  0.0000  0.9926  0.0000
  0.0000  0.0000  0.0000  0.0000  0.9926
 
spin component  2
 
  0.9926  0.0000  0.0000  0.0000  0.0000
  0.0000  0.9926  0.0000  0.0000  0.0000
  0.0000  0.0000  0.9926  0.0000  0.0000
  0.0000  0.0000  0.0000  0.9926  0.0000
  0.0000  0.0000  0.0000  0.0000  0.9926
 
 occupancies and eigenvectors
 
  o =  0.9926  v =  1.0000  0.0000  0.0000  0.0000  0.0000  0.0000  0.0000  0.0000  0.0000  0.0000      0.0000  0.0000  0.0000  0.0000  0.0000  0.0000  0.0000  0.0000  0.0000  0.0000
  o =  0.9926  v =  0.0000  1.0000  0.0000  0.0000  0.0000  0.0000  0.0000  0.0000  0.0000  0.0000      0.0000  0.0000  0.0000  0.0000  0.0000  0.0000  0.0000  0.0000  0.0000  0.0000
  o =  0.9926  v =  0.0000  0.0000  1.0000  0.0000  0.0000  0.0000  0.0000  0.0000  0.0000  0.0000      0.0000  0.0000  0.0000  0.0000  0.0000  0.0000  0.0000  0.0000  0.0000  0.0000
  o =  0.9926  v =  0.0000  0.0000  0.0000  1.0000  0.0000  0.0000  0.0000  0.0000  0.0000  0.0000      0.0000  0.0000  0.0000  0.0000  0.0000  0.0000  0.0000  0.0000  0.0000  0.0000
  o =  0.9926  v =  0.0000  0.0000  0.0000  0.0000  1.0000  0.0000  0.0000  0.0000  0.0000  0.0000      0.0000  0.0000  0.0000  0.0000  0.0000  0.0000  0.0000  0.0000  0.0000  0.0000
  o =  0.9926  v =  0.0000  0.0000  0.0000  0.0000  0.0000  1.0000  0.0000  0.0000  0.0000  0.0000      0.0000  0.0000  0.0000  0.0000  0.0000  0.0000  0.0000  0.0000  0.0000  0.0000
  o =  0.9926  v =  0.0000  0.0000  0.0000  0.0000  0.0000  0.0000  1.0000  0.0000  0.0000  0.0000      0.0000  0.0000  0.0000  0.0000  0.0000  0.0000  0.0000  0.0000  0.0000  0.0000
  o =  0.9926  v =  0.0000  0.0000  0.0000  0.0000  0.0000  0.0000  0.0000  1.0000  0.0000  0.0000      0.0000  0.0000  0.0000  0.0000  0.0000  0.0000  0.0000  0.0000  0.0000  0.0000
  o =  0.9926  v =  0.0000  0.0000  0.0000  0.0000  0.0000  0.0000  0.0000  0.0000  1.0000  0.0000      0.0000  0.0000  0.0000  0.0000  0.0000  0.0000  0.0000  0.0000  0.0000  0.0000
  o =  0.9926  v =  0.0000  0.0000  0.0000  0.0000  0.0000  0.0000  0.0000  0.0000  0.0000  1.0000      0.0000  0.0000  0.0000  0.0000  0.0000  0.0000  0.0000  0.0000  0.0000  0.0000
atom =  47  type =  2  l = 2
 
 onsite density matrix
 
spin component  1
 
  0.9926  0.0000  0.0000  0.0000  0.0000
  0.0000  0.9926  0.0000  0.0000  0.0000
  0.0000  0.0000  0.9926  0.0000  0.0000
  0.0000  0.0000  0.0000  0.9926  0.0000
  0.0000  0.0000  0.0000  0.0000  0.9926
 
spin component  2
 
  0.9926  0.0000  0.0000  0.0000  0.0000
  0.0000  0.9926  0.0000  0.0000  0.0000
  0.0000  0.0000  0.9926  0.0000  0.0000
  0.0000  0.0000  0.0000  0.9926  0.0000
  0.0000  0.0000  0.0000  0.0000  0.9926
 
 occupancies and eigenvectors
 
  o =  0.9926  v =  1.0000  0.0000  0.0000  0.0000  0.0000  0.0000  0.0000  0.0000  0.0000  0.0000      0.0000  0.0000  0.0000  0.0000  0.0000  0.0000  0.0000  0.0000  0.0000  0.0000
  o =  0.9926  v =  0.0000  1.0000  0.0000  0.0000  0.0000  0.0000  0.0000  0.0000  0.0000  0.0000      0.0000  0.0000  0.0000  0.0000  0.0000  0.0000  0.0000  0.0000  0.0000  0.0000
  o =  0.9926  v =  0.0000  0.0000  1.0000  0.0000  0.0000  0.0000  0.0000  0.0000  0.0000  0.0000      0.0000  0.0000  0.0000  0.0000  0.0000  0.0000  0.0000  0.0000  0.0000  0.0000
  o =  0.9926  v =  0.0000  0.0000  0.0000  1.0000  0.0000  0.0000  0.0000  0.0000  0.0000  0.0000      0.0000  0.0000  0.0000  0.0000  0.0000  0.0000  0.0000  0.0000  0.0000  0.0000
  o =  0.9926  v =  0.0000  0.0000  0.0000  0.0000  1.0000  0.0000  0.0000  0.0000  0.0000  0.0000      0.0000  0.0000  0.0000  0.0000  0.0000  0.0000  0.0000  0.0000  0.0000  0.0000
  o =  0.9926  v =  0.0000  0.0000  0.0000  0.0000  0.0000  1.0000  0.0000  0.0000  0.0000  0.0000      0.0000  0.0000  0.0000  0.0000  0.0000  0.0000  0.0000  0.0000  0.0000  0.0000
  o =  0.9926  v =  0.0000  0.0000  0.0000  0.0000  0.0000  0.0000  1.0000  0.0000  0.0000  0.0000      0.0000  0.0000  0.0000  0.0000  0.0000  0.0000  0.0000  0.0000  0.0000  0.0000
  o =  0.9926  v =  0.0000  0.0000  0.0000  0.0000  0.0000  0.0000  0.0000  1.0000  0.0000  0.0000      0.0000  0.0000  0.0000  0.0000  0.0000  0.0000  0.0000  0.0000  0.0000  0.0000
  o =  0.9926  v =  0.0000  0.0000  0.0000  0.0000  0.0000  0.0000  0.0000  0.0000  1.0000  0.0000      0.0000  0.0000  0.0000  0.0000  0.0000  0.0000  0.0000  0.0000  0.0000  0.0000
  o =  0.9926  v =  0.0000  0.0000  0.0000  0.0000  0.0000  0.0000  0.0000  0.0000  0.0000  1.0000      0.0000  0.0000  0.0000  0.0000  0.0000  0.0000  0.0000  0.0000  0.0000  0.0000
    EDDIAG:  cpu time   37.1793: real time   38.0867
  RMM-DIIS:  cpu time    5.1412: real time    7.6121
    ORTHCH:  cpu time    3.5135: real time    5.5175
       DOS:  cpu time    0.0020: real time    0.0023
    --------------------------------------------
      LOOP:  cpu time   46.4529: real time   52.0310

 eigenvalue-minimisations  :  1952
 total energy-change (2. order) :-0.3213352E+03  (-0.1484360E+03)
 number of electron     402.0000000 magnetization 
 augmentation part      402.0000000 magnetization 

 Free energy of the ion-electron system (eV)
  ---------------------------------------------------
  alpha Z        PSCENC =      1390.87733343
  Ewald energy   TEWEN  =    -31377.02334497
  -Hartree energ DENC   =    -11041.50188653
  -exchange      EXHF   =         0.00000000
  -V(xc)+E(xc)   XCENC  =      1760.70987903
  PAW double counting   =     34622.81385408   -34943.27019848
  entropy T*S    EENTRO =         0.00000000
  eigenvalues    EBANDS =     -2965.81903160
  atomic energy  EATOM  =     42231.87821999
  Solvation  Ediel_sol  =         0.00000000
  ---------------------------------------------------
  free energy    TOTEN  =      -321.33517505 eV

  energy without entropy =     -321.33517505  energy(sigma->0) =     -321.33517505


--------------------------------------------------------------------------------------------------------




----------------------------------------- Iteration    1(   2)  ---------------------------------------


    EDDIAG:  cpu time    5.2262: real time    5.4804
  RMM-DIIS:  cpu time    6.1201: real time    6.6098
    ORTHCH:  cpu time    4.5763: real time    5.3493
       DOS:  cpu time    0.0020: real time    0.0023
    --------------------------------------------
      LOOP:  cpu time   15.9856: real time   17.5803

 eigenvalue-minimisations  :  1952
 total energy-change (2. order) :-0.5345057E+02  (-0.7182579E+02)
 number of electron     402.0000000 magnetization 
 augmentation part      402.0000000 magnetization 

 Free energy of the ion-electron system (eV)
  ---------------------------------------------------
  alpha Z        PSCENC =      1390.87733343
  Ewald energy   TEWEN  =    -31377.02334497
  -Hartree energ DENC   =    -11041.50188653
  -exchange      EXHF   =         0.00000000
  -V(xc)+E(xc)   XCENC  =      1760.70987903
  PAW double counting   =     34622.81385408   -34943.27019848
  entropy T*S    EENTRO =         0.00000000
  eigenvalues    EBANDS =     -3019.26960040
  atomic energy  EATOM  =     42231.87821999
  Solvation  Ediel_sol  =         0.00000000
  ---------------------------------------------------
  free energy    TOTEN  =      -374.78574385 eV

  energy without entropy =     -374.78574385  energy(sigma->0) =     -374.78574385


--------------------------------------------------------------------------------------------------------




----------------------------------------- Iteration    1(   3)  ---------------------------------------


    EDDIAG:  cpu time   32.5750: real time   40.8579
  RMM-DIIS:  cpu time    6.0201: real time    7.7056
    ORTHCH:  cpu time    4.0534: real time    4.8715
       DOS:  cpu time    0.0040: real time    0.0144
    --------------------------------------------
      LOOP:  cpu time   42.7125: real time   53.5200

 eigenvalue-minimisations  :  1952
 total energy-change (2. order) :-0.1364625E+03  (-0.3225729E+03)
 number of electron     402.0000000 magnetization 
 augmentation part      402.0000000 magnetization 

 Free energy of the ion-electron system (eV)
  ---------------------------------------------------
  alpha Z        PSCENC =      1390.87733343
  Ewald energy   TEWEN  =    -31377.02334497
  -Hartree energ DENC   =    -11041.50188653
  -exchange      EXHF   =         0.00000000
  -V(xc)+E(xc)   XCENC  =      1760.70987903
  PAW double counting   =     34622.81385408   -34943.27019848
  entropy T*S    EENTRO =        -0.03899775
  eigenvalues    EBANDS =     -3155.69311059
  atomic energy  EATOM  =     42231.87821999
  Solvation  Ediel_sol  =         0.00000000
  ---------------------------------------------------
  free energy    TOTEN  =      -511.24825180 eV

  energy without entropy =     -511.20925405  energy(sigma->0) =     -511.22875292


--------------------------------------------------------------------------------------------------------




----------------------------------------- Iteration    1(   4)  ---------------------------------------


    EDDIAG:  cpu time   34.1468: real time   34.5723
  RMM-DIIS:  cpu time   13.6819: real time   17.9533
    ORTHCH:  cpu time    4.3293: real time    5.0236
       DOS:  cpu time    0.0040: real time    0.0141
    --------------------------------------------
      LOOP:  cpu time   52.1771: real time   57.6196

 eigenvalue-minimisations  :  4784
 total energy-change (2. order) : 0.2619407E+03  (-0.6109539E+03)
 number of electron     402.0000000 magnetization 
 augmentation part      402.0000000 magnetization 

 Free energy of the ion-electron system (eV)
  ---------------------------------------------------
  alpha Z        PSCENC =      1390.87733343
  Ewald energy   TEWEN  =    -31377.02334497
  -Hartree energ DENC   =    -11041.50188653
  -exchange      EXHF   =         0.00000000
  -V(xc)+E(xc)   XCENC  =      1760.70987903
  PAW double counting   =     34622.81385408   -34943.27019848
  entropy T*S    EENTRO =        -0.01444721
  eigenvalues    EBANDS =     -2893.77691256
  atomic energy  EATOM  =     42231.87821999
  Solvation  Ediel_sol  =         0.00000000
  ---------------------------------------------------
  free energy    TOTEN  =      -249.30750322 eV

  energy without entropy =     -249.29305601  energy(sigma->0) =     -249.30027962


--------------------------------------------------------------------------------------------------------




----------------------------------------- Iteration    1(   5)  ---------------------------------------


    EDDIAG:  cpu time   31.0703: real time   40.8184
  RMM-DIIS:  cpu time   17.2614: real time   22.4566
    ORTHCH:  cpu time    4.4363: real time    5.0611
       DOS:  cpu time    0.0040: real time    0.0043
    CHARGE:  cpu time    1.0678: real time    1.1884
    MIXING:  cpu time    0.1290: real time    0.1285
    --------------------------------------------
      LOOP:  cpu time   53.9798: real time   69.6879

 eigenvalue-minimisations  :  5167
 total energy-change (2. order) :-0.6918130E+02  (-0.3162730E+02)
 number of electron     405.9999607 magnetization 
 augmentation part      140.2379718 magnetization 

 Broyden mixing:
  rms(total) = 0.45256E+01    rms(broyden)= 0.45211E+01
  rms(prec ) = 0.60514E+01
  weight for this iteration     100.00

 Free energy of the ion-electron system (eV)
  ---------------------------------------------------
  alpha Z        PSCENC =      1390.87733343
  Ewald energy   TEWEN  =    -31377.02334497
  -Hartree energ DENC   =    -11041.50188653
  -exchange      EXHF   =         0.00000000
  -V(xc)+E(xc)   XCENC  =      1760.70987903
  PAW double counting   =     34622.81385408   -34943.27019848
  entropy T*S    EENTRO =        -0.01025870
  eigenvalues    EBANDS =     -2962.96240366
  atomic energy  EATOM  =     42231.87821999
  Solvation  Ediel_sol  =         0.00000000
  ---------------------------------------------------
  free energy    TOTEN  =      -318.48880581 eV

  energy without entropy =     -318.47854711  energy(sigma->0) =     -318.48367646


--------------------------------------------------------------------------------------------------------




----------------------------------------- Iteration    1(   6)  ---------------------------------------


    POTLOK:  cpu time    0.9549: real time    1.0990
    SETDIJ:  cpu time    0.1490: real time    0.1490
atom =  33  type =  2  l = 2
 
 onsite density matrix
 
spin component  1
 
  1.0237  0.0000 -0.0170  0.0000  0.0000
  0.0000  1.0188  0.0000 -0.0167  0.0000
 -0.0170  0.0000  1.0130  0.0000  0.0000
  0.0000 -0.0167  0.0000  1.0188  0.0000
  0.0000  0.0000  0.0000  0.0000  1.0015
 
spin component  2
 
  1.0237  0.0000 -0.0170  0.0000  0.0000
  0.0000  1.0188  0.0000 -0.0167  0.0000
 -0.0170  0.0000  1.0130  0.0000  0.0000
  0.0000 -0.0167  0.0000  1.0188  0.0000
  0.0000  0.0000  0.0000  0.0000  1.0015
 
 occupancies and eigenvectors
 
  o =  1.0005  v = -0.5916  0.0000 -0.8063  0.0000  0.0000  0.0000  0.0000  0.0000  0.0000  0.0000      0.0000  0.0000  0.0000  0.0000  0.0000  0.0000  0.0000  0.0000  0.0000  0.0000
  o =  1.0005  v =  0.0000  0.0000  0.0000  0.0000  0.0000 -0.5916  0.0000 -0.8063  0.0000  0.0000      0.0000  0.0000  0.0000  0.0000  0.0000  0.0000  0.0000  0.0000  0.0000  0.0000
  o =  1.0015  v =  0.0000  0.0000  0.0000  0.0000  1.0000  0.0000  0.0000  0.0000  0.0000  0.0000      0.0000  0.0000  0.0000  0.0000  0.0000  0.0000  0.0000  0.0000  0.0000  0.0000
[...]
    161       3.3788      2.00000
    162       3.5065      2.00000
    163       3.5931      2.00000
    164       3.6228      2.00000
    165       3.7049      2.00000
    166       3.7471      2.00000
    167       3.7879      2.00000
    168       3.7988      2.00000
    169       3.8293      2.00000
    170       3.8674      2.00000
    171       3.9433      2.00000
    172       4.0273      2.00000
    173       4.0736      2.00000
    174       4.1226      2.00000
    175       4.1501      2.00000
    176       4.1985      2.00000
    177       4.3220      2.00000
    178       4.3514      2.00000
    179       4.3739      2.00000
    180       4.3964      2.00000
    181       4.4367      2.00000
    182       4.4383      2.00000
    183       4.5242      2.00000
    184       4.5716      2.00000
    185       4.5853      2.00000
    186       4.6903      2.00000
    187       4.7292      2.00000
    188       4.7497      2.00000
    189       4.8199      2.00000
    190       4.9281      2.00000
    191       4.9944      2.00000
    192       5.0771      2.00000
    193       5.0783      2.00000
    194       5.4475      2.00000
    195       5.5038      2.00000
    196       5.5378      2.00000
    197       5.8329      2.00000
    198       5.8663      2.00000
    199       6.1013      2.00000
    200       6.1150      2.00000
    201       6.1625      2.00000
    202       6.1805      2.00000
    203       6.5044      2.00000
    204       9.5610      0.00000
    205      10.1957      0.00000
    206      10.2608      0.00000
    207      10.6534      0.00000
    208      10.8338      0.00000
    209      10.9879      0.00000
    210      11.0785      0.00000
    211      11.3886      0.00000
    212      11.5703      0.00000
    213      11.6897      0.00000
    214      11.7311      0.00000
    215      12.1424      0.00000
    216      12.1699      0.00000
    217      12.6014      0.00000
    218      13.0511      0.00000
    219      13.4783      0.00000
    220      13.6347      0.00000
    221      13.8082      0.00000
    222      13.9164      0.00000
    223      13.9812      0.00000
    224      14.0517      0.00000
    225      14.2394      0.00000
    226      14.3224      0.00000
    227      14.4818      0.00000
    228      14.6702      0.00000
    229      14.6807      0.00000
    230      14.7433      0.00000
    231      14.9137      0.00000
    232      15.0131      0.00000
    233      15.0437      0.00000
    234      15.1717      0.00000
    235      15.2233      0.00000
    236      15.2686      0.00000
    237      15.2733      0.00000
    238      15.4264      0.00000
    239      15.4868      0.00000
    240      15.6002      0.00000
    241      15.9345      0.00000
    242      16.1073      0.00000
    243      16.3044      0.00000
    244      16.6697      0.00000


--------------------------------------------------------------------------------------------------------


 soft charge-density along one line, spin component           1
         0         1         2         3         4         5         6         7         8         9
 total charge-density along one line
 
 pseudopotential strength for first ion, spin component:           1
 11.592 -14.058   0.023   0.040  -0.023  -0.029  -0.050   0.029
-14.058  17.063  -0.030  -0.050   0.030   0.037   0.064  -0.037
  0.023  -0.030  -7.566   0.030   0.059   8.905  -0.041  -0.080
  0.040  -0.050   0.030  -7.536  -0.030  -0.041   8.865   0.041
 -0.023   0.030   0.059  -0.030  -7.566  -0.080   0.041   8.905
 -0.029   0.037   8.905  -0.041  -0.080 -10.278   0.055   0.108
 -0.050   0.064  -0.041   8.865   0.041   0.055 -10.223  -0.055
  0.029  -0.037  -0.080   0.041   8.905   0.108  -0.055 -10.278
 total augmentation occupancy for first ion, spin component:           1
  2.636   0.381  -0.063  -0.097   0.063  -0.027  -0.041   0.027
  0.381   0.094  -0.074  -0.120   0.074  -0.014  -0.022   0.014
 -0.063  -0.074   2.131  -0.015  -0.025   0.264  -0.035  -0.066
 -0.097  -0.120  -0.015   2.132   0.015  -0.035   0.235   0.035
  0.063   0.074  -0.025   0.015   2.131  -0.066   0.035   0.264
 -0.027  -0.014   0.264  -0.035  -0.066   0.041  -0.010  -0.020
 -0.041  -0.022  -0.035   0.235   0.035  -0.010   0.033   0.010
  0.027   0.014  -0.066   0.035   0.264  -0.020   0.010   0.041


------------------------ aborting loop because EDIFF is reached ----------------------------------------


    CHARGE:  cpu time    1.0078: real time    1.0084
    FORLOC:  cpu time    0.0380: real time    0.0381
    FORNL :  cpu time   21.2468: real time   21.3010
    STRESS:  cpu time   15.9826: real time   16.2801
    FORCOR:  cpu time    0.3919: real time    0.3925
    FORHAR:  cpu time    0.1850: real time    0.1854
    MIXING:  cpu time    0.1820: real time    0.1820
    OFIELD:  cpu time    0.0000: real time    0.0000

  FORCE on cell =-STRESS in cart. coord.  units (eV):
  Direction    XX          YY          ZZ          XY          YZ          ZX
  --------------------------------------------------------------------------------------
  Alpha Z  1390.87733  1390.87733  1390.87733
  Ewald  -11984.92103-11984.92103 -7238.26364  -213.62055     0.00000     0.00000
  Hartree  2929.93591  2929.93591  5647.81418  -126.26511     0.00000     0.00000
  E(xc)   -2061.00356 -2061.00356 -2056.42851    -0.39431     0.00000     0.00000
  Local     946.02509   946.02509 -6390.01562   342.26950     0.00000     0.00000
  n-local    73.01410    72.59421   142.63615   -10.00626     0.11089     0.14606
  augment  2991.44163  2991.44163  2968.44288     1.40160     0.00000     0.00000
  Kinetic  5768.78501  5770.39204  5586.19873    10.10465    -0.57625    -0.73368
  Fock        0.00000     0.00000     0.00000     0.00000     0.00000     0.00000
  -------------------------------------------------------------------------------------
  Total      54.74805    54.74805    51.26149     3.49008     0.00000     0.00000
  in kB     156.36102   156.36102   146.40337     9.96771     0.00000     0.00000
  external pressure =      153.04 kB  Pullay stress =        0.00 kB


 VOLUME and BASIS-vectors are now :
 -----------------------------------------------------------------------------
  energy-cutoff  :      480.00
  volume of cell :      560.98
      direct lattice vectors                 reciprocal lattice vectors
     9.432027167  0.000000000  0.000000000     0.106021747  0.000000000  0.000000000
     0.000000000  9.432027167  0.000000000     0.000000000  0.106021747  0.000000000
     0.000000000  0.000000000  6.305806843     0.000000000  0.000000000  0.158583989

  length of vectors
     9.432027167  9.432027167  6.305806843     0.106021747  0.106021747  0.158583989


 FORCES acting on ions
    electron-ion (+dipol)            ewald-force                    non-local-force                 convergence-correction
 -----------------------------------------------------------------------------------------------
   0.108E+03 -.108E+03 -.190E+03   -.117E+03 0.117E+03 0.206E+03   0.953E+01 -.953E+01 -.162E+02   -.248E-01 0.248E-01 0.194E-01
   0.554E+02 -.554E+02 -.686E+01   -.596E+02 0.596E+02 0.727E+01   0.420E+01 -.420E+01 -.406E+00   -.113E-01 0.113E-01 -.333E-02
   0.297E+02 -.790E+02 -.114E+02   -.334E+02 0.825E+02 0.113E+02   0.369E+01 -.344E+01 0.948E-01   -.929E-02 -.747E-02 0.262E-02
   -.259E+02 0.515E+02 0.608E-06   0.233E+02 -.512E+02 -.462E-15   0.252E+01 -.341E+00 0.217E-18   0.197E-01 -.123E-01 0.423E-11
   -.515E+02 0.259E+02 -.608E-06   0.512E+02 -.233E+02 -.199E-15   0.341E+00 -.252E+01 0.217E-18   0.123E-01 -.197E-01 0.429E-11
   -.108E+03 0.108E+03 0.190E+03   0.117E+03 -.117E+03 -.206E+03   -.953E+01 0.953E+01 0.162E+02   0.248E-01 -.248E-01 -.194E-01
   -.554E+02 0.554E+02 0.686E+01   0.596E+02 -.596E+02 -.727E+01   -.420E+01 0.420E+01 0.406E+00   0.113E-01 -.113E-01 0.333E-02
   0.168E+02 0.245E+02 0.144E-04   -.204E+02 -.217E+02 0.284E-13   0.350E+01 -.275E+01 -.108E-18   0.616E-01 -.615E-01 -.380E-12
   -.168E+02 -.245E+02 -.144E-04   0.204E+02 0.217E+02 0.200E-13   -.350E+01 0.275E+01 0.108E-18   -.616E-01 0.615E-01 -.273E-11
   -.245E+02 -.168E+02 -.144E-04   0.217E+02 0.204E+02 -.151E-14   0.275E+01 -.350E+01 -.108E-18   0.615E-01 -.616E-01 -.315E-11
   -.554E+02 0.554E+02 -.686E+01   0.596E+02 -.596E+02 0.727E+01   -.420E+01 0.420E+01 -.406E+00   0.113E-01 -.113E-01 -.333E-02
   -.117E+00 -.117E+00 0.113E-06   0.142E+01 0.142E+01 -.142E-13   -.129E+01 -.129E+01 0.000E+00   -.416E-03 -.416E-03 0.560E-12
   -.258E+03 -.258E+03 0.616E-05   0.280E+03 0.280E+03 0.233E-13   -.219E+02 -.219E+02 0.000E+00   0.841E-02 0.841E-02 0.502E-11
   0.297E+02 -.790E+02 0.114E+02   -.334E+02 0.825E+02 -.113E+02   0.369E+01 -.344E+01 -.948E-01   -.929E-02 -.747E-02 -.262E-02
   -.790E+02 0.297E+02 0.114E+02   0.825E+02 -.334E+02 -.113E+02   -.344E+01 0.369E+01 -.948E-01   -.747E-02 -.929E-02 -.262E-02
   0.126E+02 0.126E+02 -.337E-05   -.134E+02 -.134E+02 0.308E-13   0.799E+00 0.799E+00 0.000E+00   0.108E-01 0.108E-01 0.352E-11
   -.101E+03 -.101E+03 0.237E-05   0.107E+03 0.107E+03 -.352E-13   -.639E+01 -.639E+01 0.217E-18   0.969E-02 0.969E-02 -.284E-11
   -.108E+03 0.108E+03 -.190E+03   0.117E+03 -.117E+03 0.206E+03   -.953E+01 0.953E+01 -.162E+02   0.248E-01 -.248E-01 0.194E-01
   0.245E+02 0.168E+02 0.144E-04   -.217E+02 -.204E+02 -.922E-14   -.275E+01 0.350E+01 0.108E-18   -.615E-01 0.616E-01 -.260E-11
   -.790E+02 0.297E+02 -.114E+02   0.825E+02 -.334E+02 0.113E+02   -.344E+01 0.369E+01 0.948E-01   -.747E-02 -.929E-02 0.262E-02
   -.126E+02 -.126E+02 0.337E-05   0.134E+02 0.134E+02 -.846E-14   -.799E+00 -.799E+00 0.000E+00   -.108E-01 -.108E-01 -.978E-12
   0.108E+03 -.108E+03 0.190E+03   -.117E+03 0.117E+03 -.206E+03   0.953E+01 -.953E+01 0.162E+02   -.248E-01 0.248E-01 -.194E-01
   0.554E+02 -.554E+02 0.686E+01   -.596E+02 0.596E+02 -.727E+01   0.420E+01 -.420E+01 0.406E+00   -.113E-01 0.113E-01 0.333E-02
   0.259E+02 -.515E+02 -.608E-06   -.233E+02 0.512E+02 -.138E-13   -.252E+01 0.341E+00 -.217E-18   -.197E-01 0.123E-01 0.330E-11
   0.101E+03 0.101E+03 -.237E-05   -.107E+03 -.107E+03 -.326E-14   0.639E+01 0.639E+01 -.217E-18   -.969E-02 -.969E-02 0.512E-12
   0.258E+03 0.258E+03 -.616E-05   -.280E+03 -.280E+03 0.287E-15   0.219E+02 0.219E+02 0.000E+00   -.841E-02 -.841E-02 -.997E-12
   0.515E+02 -.259E+02 0.608E-06   -.512E+02 0.233E+02 0.420E-13   -.341E+00 0.252E+01 -.217E-18   -.123E-01 0.197E-01 0.249E-11
   -.297E+02 0.790E+02 0.114E+02   0.334E+02 -.825E+02 -.113E+02   -.369E+01 0.344E+01 -.948E-01   0.929E-02 0.747E-02 -.262E-02
   0.790E+02 -.297E+02 -.114E+02   -.825E+02 0.334E+02 0.113E+02   0.344E+01 -.369E+01 0.948E-01   0.747E-02 0.929E-02 0.262E-02
   -.297E+02 0.790E+02 -.114E+02   0.334E+02 -.825E+02 0.113E+02   -.369E+01 0.344E+01 0.948E-01   0.929E-02 0.747E-02 0.262E-02
   0.117E+00 0.117E+00 -.113E-06   -.142E+01 -.142E+01 0.373E-16   0.129E+01 0.129E+01 0.000E+00   0.416E-03 0.416E-03 -.925E-12
   0.790E+02 -.297E+02 0.114E+02   -.825E+02 0.334E+02 -.113E+02   0.344E+01 -.369E+01 -.948E-01   0.747E-02 0.929E-02 -.262E-02
   0.390E-11 -.590E-11 -.241E-12   -.569E-13 -.126E-13 -.167E-13   0.000E+00 0.000E+00 0.000E+00   0.225E-11 -.370E-11 0.476E-12
   -.103E+03 -.103E+03 -.192E+02   0.108E+03 0.108E+03 0.245E+02   -.454E+01 -.454E+01 -.530E+01   0.815E-02 0.815E-02 -.795E-02
   0.103E+03 0.103E+03 0.192E+02   -.108E+03 -.108E+03 -.245E+02   0.454E+01 0.454E+01 0.530E+01   -.815E-02 -.815E-02 0.795E-02
   -.182E-12 -.201E-12 0.103E-11   0.306E-12 0.140E-12 -.368E-13   0.000E+00 0.000E+00 0.000E+00   0.686E-12 0.118E-10 -.164E-11
   -.103E+03 -.103E+03 0.192E+02   0.108E+03 0.108E+03 -.245E+02   -.454E+01 -.454E+01 0.530E+01   0.815E-02 0.815E-02 0.795E-02
   0.155E-12 0.223E-11 0.928E-12   0.648E-13 0.162E-13 -.653E-13   0.000E+00 0.000E+00 0.000E+00   -.868E-12 -.129E-10 -.282E-11
   0.103E+03 0.103E+03 -.192E+02   -.108E+03 -.108E+03 0.245E+02   0.454E+01 0.454E+01 -.530E+01   -.815E-02 -.815E-02 -.795E-02
   0.104E+03 -.104E+03 -.803E+02   -.112E+03 0.112E+03 0.784E+02   0.760E+01 -.760E+01 0.192E+01   -.292E-01 0.292E-01 0.206E-01
   -.104E+03 0.104E+03 -.803E+02   0.112E+03 -.112E+03 0.784E+02   -.760E+01 0.760E+01 0.192E+01   0.292E-01 -.292E-01 0.206E-01
   0.220E-11 0.157E-12 -.660E-11   -.256E-12 0.338E-12 -.380E-13   0.000E+00 0.000E+00 0.000E+00   -.186E-11 0.396E-11 -.409E-11
   -.102E-12 0.207E-11 -.320E-12   -.155E-15 0.273E-14 -.427E-13   0.000E+00 0.000E+00 0.000E+00   -.542E-11 -.692E-11 0.211E-11
   0.104E+03 -.104E+03 0.803E+02   -.112E+03 0.112E+03 -.784E+02   0.760E+01 -.760E+01 -.192E+01   -.292E-01 0.292E-01 -.206E-01
   -.104E+03 0.104E+03 0.803E+02   0.112E+03 -.112E+03 -.784E+02   -.760E+01 0.760E+01 -.192E+01   0.292E-01 -.292E-01 -.206E-01
   0.204E-11 -.836E-13 0.545E-11   0.341E-12 0.310E-13 -.373E-13   0.000E+00 0.000E+00 0.000E+00   -.460E-11 0.124E-11 0.124E-11
   0.343E-11 -.649E-11 0.139E-11   0.852E-13 -.230E-12 -.175E-14   0.000E+00 0.000E+00 0.000E+00   -.309E-11 -.460E-11 -.930E-12
 -----------------------------------------------------------------------------------------------
   0.412E-10 -.887E-10 -.393E-10   0.256E-12 -.142E-12 0.462E-13   0.888E-15 -.533E-14 0.155E-14   -.165E-10 0.227E-10 -.167E-10
 
 
 POSITION                                       TOTAL-FORCE (eV/Angst)
 -----------------------------------------------------------------------------------
      0.96151      8.47052      4.59373         0.000795     -0.000795      0.001167
      3.78850      5.64352      4.72455         0.001562     -0.001562      0.004617
      8.52361      5.62106      4.72837         0.018258      0.018757     -0.000689
      6.11277      1.47124      0.00000        -0.014626      0.020342      0.000000
      7.96079      3.31926      0.00000        -0.020342      0.014626      0.000000
      8.47052      0.96151      1.71207        -0.000795      0.000795     -0.001167
      5.64352      3.78850      1.58126        -0.001562      0.001562     -0.004617
      6.03578      1.51078      3.15290        -0.015516      0.031846      0.000000
      3.39625      7.92125      3.15290         0.015516     -0.031846      0.000000
      7.92125      3.39625      3.15290        -0.031846      0.015516      0.000000
      5.64352      3.78850      4.72455        -0.001562      0.001562      0.004617
      6.11432      6.11432      0.00000         0.009382      0.009382      0.000000
      7.92083      7.92083      0.00000         0.015025      0.015025      0.000000
      8.52361      5.62106      1.57744         0.018258      0.018757      0.000689
      5.62106      8.52361      1.57744         0.018757      0.018258      0.000689
      6.15886      6.15886      3.15290         0.009318      0.009318      0.000000
      7.94874      7.94874      3.15290         0.011251      0.011251      0.000000
      8.47052      0.96151      4.59373        -0.000795      0.000795      0.001167
      1.51078      6.03578      3.15290         0.031846     -0.015516      0.000000
      5.62106      8.52361      4.72837         0.018757      0.018258     -0.000689
      3.27316      3.27316      3.15290        -0.009318     -0.009318      0.000000
      0.96151      8.47052      1.71207         0.000795     -0.000795     -0.001167
      3.78850      5.64352      1.58126         0.001562     -0.001562     -0.004617
      3.31926      7.96079      0.00000         0.014626     -0.020342      0.000000
      1.48329      1.48329      3.15290        -0.011251     -0.011251      0.000000
      1.51120      1.51120      0.00000        -0.015025     -0.015025      0.000000
      1.47124      6.11277      0.00000         0.020342     -0.014626      0.000000
      0.90842      3.81097      1.57744        -0.018258     -0.018757      0.000689
      3.81097      0.90842      4.72837        -0.018757     -0.018258     -0.000689
      0.90842      3.81097      4.72837        -0.018258     -0.018757     -0.000689
      3.31770      3.31770      0.00000        -0.009382     -0.009382      0.000000
      3.81097      0.90842      1.57744        -0.018757     -0.018258      0.000689
      4.71601      4.71601      3.15290         0.000000      0.000000      0.000000
      7.10593      7.10593      4.75706         0.013769      0.013769      0.011868
      2.32610      2.32610      1.54875        -0.013769     -0.013769     -0.011868
      0.00000      0.00000      3.15290         0.000000      0.000000      0.000000
      7.10593      7.10593      1.54875         0.013769      0.013769     -0.011868
      0.00000      4.71601      3.15290         0.000000      0.000000      0.000000
      2.32610      2.32610      4.75706        -0.013769     -0.013769      0.011868
      2.29971      7.13232      4.71703         0.005361     -0.005361     -0.014601
      7.13232      2.29971      4.71703        -0.005361      0.005361     -0.014601
      4.71601      0.00000      3.15290         0.000000      0.000000      0.000000
      0.00000      4.71601      0.00000         0.000000      0.000000      0.000000
      2.29971      7.13232      1.58878         0.005361     -0.005361      0.014601
      7.13232      2.29971      1.58878        -0.005361      0.005361      0.014601
      4.71601      0.00000      0.00000         0.000000      0.000000      0.000000
      4.71601      4.71601      0.00000         0.000000      0.000000      0.000000
 -----------------------------------------------------------------------------------
    total drift:                                0.000000      0.000000      0.000000


--------------------------------------------------------------------------------------------------------



  FREE ENERGIE OF THE ION-ELECTRON SYSTEM (eV)
  ---------------------------------------------------
  free  energy   TOTEN  =      -274.80169369 eV

  energy  without entropy=     -274.80169369  energy(sigma->0) =     -274.80169369
 
 d Force = 0.3871349E-02[ 0.246E-02, 0.528E-02]  d Energy = 0.3924851E-02-0.535E-04
 d Force =-0.6609782E+01[-0.664E+01,-0.658E+01]  d Ewald  =-0.6609747E+01-0.345E-04


--------------------------------------------------------------------------------------------------------


    POTLOK:  cpu time    0.6099: real time    0.6099


--------------------------------------------------------------------------------------------------------


 Quasi-Newton relaxation of ions (Broydens 2nd method)
  g(Force)  = 0.888E-03   g(Stress)= 0.000E+00

 retain information from N=  5 steps
 eigenvalues of (default step * inverse Hessian matrix)
  average eigenvalue of G=   2.4148
 eigenvalue spectrum of G is  4.2291  4.2291  1.9048  0.6223  1.0884


--------------------------------------------------------------------------------------------------------


  
 reached required accuracy - stopping structural energy minimisation
 writing wavefunctions
     LOOP+:  cpu time  175.1714: real time  198.7171
    4ORBIT:  cpu time    0.0000: real time    0.0000

 total amount of memory used by VASP on root node    52824. kBytes
========================================================================

   base      :      30000. kBytes
   nonl-proj :       5182. kBytes
   fftplans  :       1450. kBytes
   grid      :       2326. kBytes
   one-center:         93. kBytes
   wavefun   :      13773. kBytes
 
  
  
 General timing and accounting informations for this job:
 ========================================================
  
                  Total CPU time used (sec):     4310.855
                            User time (sec):     4273.204
                          System time (sec):       37.651
                         Elapsed time (sec):     4625.894
  
                   Maximum memory used (kb):       65456.
                   Average memory used (kb):           0.
  
                          Minor page faults:         9809
                          Major page faults:            0
                 Voluntary context switches:         1896
