 running on   32 total cores
 distrk:  each k-point on   32 cores,    1 groups
 distr:  one band on    8 cores,    4 groups
 using from now: INCAR     
 vasp.5.4.1 05Feb16 (build Dec 31 2016 05:41:53) complex                        
  
 POSCAR found type information on POSCAR  O  Sn
 POSCAR found :  2 types and      49 ions
 scaLAPACK will be used

 ----------------------------------------------------------------------------- 
|                                                                             |
|  ADVICE TO THIS USER RUNNING 'VASP/VAMP'   (HEAR YOUR MASTER'S VOICE ...):  |
|                                                                             |
|      You have a (more or less) 'large supercell' and for larger cells       |
|      it might be more efficient to use real space projection opertators     |
|      So try LREAL= Auto  in the INCAR   file.                               |
|      Mind: At the moment your POTCAR file does not contain real space       |
|       projectors, and has to be modified,  BUT if you                       |
|      want to do an extremely  accurate calculation you might also keep the  |
|      reciprocal projection scheme          (i.e. LREAL=.FALSE.)             |
|                                                                             |
 ----------------------------------------------------------------------------- 

 LDA part: xc-table for Pade appr. of Perdew
 POSCAR, INCAR and KPOINTS ok, starting setup
 WARNING: small aliasing (wrap around) errors must be expected
 FFT: planning ...
 WAVECAR not read
 entering main loop
       N       E                     dE             d eps       ncg     rms          rms(c)
RMM:   1     0.129696660696E+03    0.12970E+03   -0.24041E+05  2560   0.242E+03
RMM:   2     0.466646900668E+03    0.33695E+03   -0.46777E+04  2560   0.435E+02
RMM:   3    -0.153536633804E+03   -0.62018E+03   -0.12948E+04  2560   0.210E+02
RMM:   4    -0.292246801886E+03   -0.13871E+03   -0.53301E+03  6189   0.163E+02
RMM:   5    -0.369682573276E+03   -0.77436E+02   -0.70866E+02  6594   0.405E+01BRMIX: very serious problems
 the old and the new charge density differ
 old charge density:   430.00000 new  427.00004
    0.420E+01
RMM:   6    -0.329366222198E+03    0.40316E+02   -0.19072E+02  6105   0.246E+01    0.177E+01
RMM:   7    -0.330960842273E+03   -0.15946E+01   -0.38916E+01  6464   0.894E+00    0.992E+00
RMM:   8    -0.331047224237E+03   -0.86382E-01   -0.92777E+00  6102   0.640E+00    0.360E+00
RMM:   9    -0.330842865659E+03    0.20436E+00   -0.19734E+00  6155   0.253E+00    0.901E-01
RMM:  10    -0.330885153494E+03   -0.42288E-01   -0.69333E-01  6296   0.127E+00    0.852E-01
RMM:  11    -0.330867026687E+03    0.18127E-01   -0.13246E-01  6359   0.629E-01    0.202E-01
RMM:  12    -0.330869362645E+03   -0.23360E-02   -0.26874E-02  6380   0.200E-01    0.905E-02
RMM:  13    -0.330869603377E+03   -0.24073E-03   -0.66146E-03  5339   0.104E-01    0.373E-02
RMM:  14    -0.330869728510E+03   -0.12513E-03   -0.18611E-03  4204   0.521E-02    0.143E-02
RMM:  15    -0.330869756926E+03   -0.28416E-04   -0.56046E-04  3852   0.317E-02
   1 F= -.33086976E+03 E0= -.33085018E+03  d E =-.330870E+03
 BRION: g(F)=  0.112E+02 g(S)=  0.000E+00
 bond charge predicted
       N       E                     dE             d eps       ncg     rms          rms(c)
RMM:   1    -0.345890378871E+03   -0.15021E+02   -0.27019E+03  6093   0.102E+02    0.208E+01
RMM:   2    -0.347068052184E+03   -0.11777E+01   -0.22600E+02  6101   0.313E+01    0.182E+01
RMM:   3    -0.339547614827E+03    0.75204E+01   -0.98000E+00  6848   0.721E+00    0.130E+01
RMM:   4    -0.335796923488E+03    0.37507E+01   -0.77176E+00  6175   0.457E+00    0.449E+00
RMM:   5    -0.335308140350E+03    0.48878E+00   -0.18276E+00  6061   0.202E+00    0.172E+00
RMM:   6    -0.335240118330E+03    0.68022E-01   -0.35897E-01  6190   0.949E-01    0.973E-01
RMM:   7    -0.335225453244E+03    0.14665E-01   -0.11291E-01  6265   0.496E-01    0.296E-01
RMM:   8    -0.335225051969E+03    0.40128E-03   -0.10679E-02  6715   0.198E-01    0.149E-01
RMM:   9    -0.335225202484E+03   -0.15052E-03   -0.13817E-03  5360   0.748E-02    0.628E-02
RMM:  10    -0.335225251582E+03   -0.49098E-04   -0.76152E-04  4958   0.496E-02
   2 F= -.33522525E+03 E0= -.33522480E+03  d E =-.435549E+01
 BRION: g(F)=  0.131E+02 g(S)=  0.000E+00 retain N=  1 mean eig= 0.47
 eig:   0.467
 bond charge predicted
       N       E                     dE             d eps       ncg     rms          rms(c)
RMM:   1    -0.339667098823E+03   -0.44419E+01   -0.82588E+02  6465   0.639E+01    0.101E+01
RMM:   2    -0.337787677295E+03    0.18794E+01   -0.31019E+01  6091   0.128E+01    0.285E+00
RMM:   3    -0.337951279196E+03   -0.16360E+00   -0.40504E+00  6743   0.401E+00    0.360E+00
RMM:   4    -0.337922971029E+03    0.28308E-01   -0.26533E-01  6418   0.971E-01    0.258E+00
RMM:   5    -0.337869453170E+03    0.53518E-01   -0.14438E-01  6056   0.715E-01    0.487E-01
RMM:   6    -0.337864519220E+03    0.49340E-02   -0.45073E-02  6387   0.350E-01    0.699E-01
RMM:   7    -0.337864271460E+03    0.24776E-03   -0.48300E-03  6062   0.155E-01    0.105E-01
RMM:   8    -0.337864329487E+03   -0.58026E-04   -0.13820E-03  5598   0.851E-02    0.219E-01
RMM:   9    -0.337864310870E+03    0.18616E-04   -0.34152E-04  3829   0.469E-02
   3 F= -.33786431E+03 E0= -.33786322E+03  d E =-.263906E+01
 BRION: g(F)=  0.242E+01 g(S)=  0.000E+00 retain N=  2 mean eig= 1.94
 eig:   0.236  3.636
 bond charge predicted
       N       E                     dE             d eps       ncg     rms          rms(c)
RMM:   1    -0.365959308470E+03   -0.28095E+02   -0.86274E+02  5487   0.496E+01    0.543E+00
RMM:   2    -0.339410380455E+03    0.26549E+02   -0.48904E+01  6095   0.211E+01    0.296E+00
RMM:   3    -0.339097049703E+03    0.31333E+00   -0.14661E+00  6836   0.312E+00    0.191E+00
RMM:   4    -0.339058127872E+03    0.38922E-01   -0.12289E-01  6079   0.736E-01    0.989E-01
RMM:   5    -0.339051758325E+03    0.63695E-02   -0.40626E-02  6086   0.402E-01    0.342E-01
RMM:   6    -0.339051629589E+03    0.12874E-03   -0.48457E-03  6433   0.156E-01    0.139E-01
RMM:   7    -0.339051705005E+03   -0.75416E-04   -0.44366E-04  4702   0.453E-02
   4 F= -.33905171E+03 E0= -.33905137E+03  d E =-.118739E+01
 BRION: g(F)=  0.704E+00 g(S)=  0.000E+00 retain N=  3 mean eig= 1.75
 eig:   3.247  0.726  1.268
 bond charge predicted
       N       E                     dE             d eps       ncg     rms          rms(c)
RMM:   1    -0.345875261511E+03   -0.68236E+01   -0.16468E+02  5144   0.207E+01    0.195E+00
RMM:   2    -0.339465978767E+03    0.64093E+01   -0.11314E+01  6087   0.107E+01    0.880E-01
RMM:   3    -0.339416305218E+03    0.49674E-01   -0.29315E-01  6891   0.147E+00    0.676E-01
RMM:   4    -0.339414415322E+03    0.18899E-02   -0.10032E-02  6101   0.271E-01    0.455E-01
RMM:   5    -0.339413789814E+03    0.62551E-03   -0.46821E-03  6057   0.176E-01    0.826E-02
RMM:   6    -0.339413819853E+03   -0.30039E-04   -0.61701E-04  5224   0.579E-02
   5 F= -.33941382E+03 E0= -.33941356E+03  d E =-.362115E+00
 BRION: g(F)=  0.311E+00 g(S)=  0.000E+00 retain N=  4 mean eig= 2.06
 eig:   3.718  3.718  0.628  0.160
 bond charge predicted
       N       E                     dE             d eps       ncg     rms          rms(c)
RMM:   1    -0.346163102513E+03   -0.67493E+01   -0.21978E+02  5120   0.263E+01    0.256E+00
RMM:   2    -0.339796874266E+03    0.63662E+01   -0.13062E+01  6086   0.117E+01    0.126E+00
RMM:   3    -0.339742499915E+03    0.54374E-01   -0.53564E-01  6927   0.188E+00    0.100E+00
RMM:   4    -0.339740003731E+03    0.24962E-02   -0.15654E-02  6079   0.346E-01    0.709E-01
RMM:   5    -0.339738563521E+03    0.14402E-02   -0.11819E-02  6117   0.235E-01    0.954E-02
RMM:   6    -0.339738665171E+03   -0.10165E-03   -0.12847E-03  5604   0.826E-02    0.722E-02
RMM:   7    -0.339738639986E+03    0.25185E-04   -0.21158E-04  3278   0.349E-02
   6 F= -.33973864E+03 E0= -.33973848E+03  d E =-.324820E+00
 BRION: g(F)=  0.199E+00 g(S)=  0.000E+00 retain N=  5 mean eig= 1.78
 eig:   3.687  3.687  0.758  0.393  0.393
 bond charge predicted
       N       E                     dE             d eps       ncg     rms          rms(c)
RMM:   1    -0.350899833439E+03   -0.11161E+02   -0.33638E+02  5129   0.312E+01    0.309E+00
RMM:   2    -0.340106245442E+03    0.10794E+02   -0.20107E+01  6086   0.141E+01    0.173E+00
RMM:   3    -0.340009942960E+03    0.96302E-01   -0.62540E-01  6907   0.202E+00    0.114E+00
RMM:   4    -0.340001985378E+03    0.79576E-02   -0.27765E-02  6072   0.405E-01    0.719E-01
RMM:   5    -0.340000077728E+03    0.19077E-02   -0.17908E-02  6038   0.278E-01    0.154E-01
RMM:   6    -0.340000235925E+03   -0.15820E-03   -0.17335E-03  5847   0.941E-02    0.583E-02
RMM:   7    -0.340000242415E+03   -0.64900E-05   -0.27229E-04  3775   0.380E-02
   7 F= -.34000024E+03 E0= -.34000015E+03  d E =-.261602E+00
 BRION: g(F)=  0.832E-01 g(S)=  0.000E+00 retain N=  6 mean eig= 2.28
 eig:   4.377  4.377  1.602  1.602  0.869  0.869
 bond charge predicted
       N       E                     dE             d eps       ncg     rms          rms(c)
RMM:   1    -0.341081369472E+03   -0.10811E+01   -0.34706E+01  5120   0.103E+01    0.803E-01
RMM:   2    -0.340071379240E+03    0.10100E+01   -0.18909E+00  6086   0.438E+00    0.367E-01
RMM:   3    -0.340065349780E+03    0.60295E-02   -0.57681E-02  6897   0.629E-01    0.308E-01
RMM:   4    -0.340065138412E+03    0.21137E-03   -0.18451E-03  5798   0.110E-01    0.221E-01
RMM:   5    -0.340064985060E+03    0.15335E-03   -0.11832E-03  5488   0.848E-02    0.361E-02
RMM:   6    -0.340064989348E+03   -0.42875E-05   -0.12409E-04  3091   0.272E-02
   8 F= -.34006499E+03 E0= -.34006490E+03  d E =-.647469E-01
 BRION: g(F)=  0.510E-01 g(S)=  0.000E+00 retain N=  7 mean eig= 3.24
 eig:   7.884  7.884  2.245  2.245  0.815  0.815  0.794
 bond charge predicted
       N       E                     dE             d eps       ncg     rms          rms(c)
RMM:   1    -0.342068647370E+03   -0.20037E+01   -0.73697E+01  5120   0.150E+01    0.117E+00
RMM:   2    -0.340158367520E+03    0.19103E+01   -0.35932E+00  6086   0.600E+00    0.585E-01
RMM:   3    -0.340146650380E+03    0.11717E-01   -0.11314E-01  6921   0.863E-01    0.449E-01
RMM:   4    -0.340146052919E+03    0.59746E-03   -0.39834E-03  6046   0.151E-01    0.310E-01
RMM:   5    -0.340145692157E+03    0.36076E-03   -0.31156E-03  5901   0.118E-01    0.369E-02
RMM:   6    -0.340145705768E+03   -0.13612E-04   -0.20907E-04  3469   0.319E-02
   9 F= -.34014571E+03 E0= -.34014563E+03  d E =-.807164E-01
 BRION: g(F)=  0.326E-01 g(S)=  0.000E+00 retain N=  7 mean eig= 2.83
 eig:   7.883  7.883  0.770  0.770  0.475  1.015  1.015
 bond charge predicted
       N       E                     dE             d eps       ncg     rms          rms(c)
RMM:   1    -0.343455076832E+03   -0.33094E+01   -0.12087E+02  5120   0.192E+01    0.150E+00
RMM:   2    -0.340244242886E+03    0.32108E+01   -0.59681E+00  6086   0.767E+00    0.823E-01
RMM:   3    -0.340220510019E+03    0.23733E-01   -0.17414E-01  6903   0.109E+00    0.583E-01
RMM:   4    -0.340218639003E+03    0.18710E-02   -0.79190E-03  6068   0.207E-01    0.377E-01
RMM:   5    -0.340218022630E+03    0.61637E-03   -0.66301E-03  5996   0.162E-01    0.545E-02
RMM:   6    -0.340218018037E+03    0.45930E-05   -0.32363E-04  4117   0.422E-02
  10 F= -.34021802E+03 E0= -.34021796E+03  d E =-.723123E-01
 BRION: g(F)=  0.118E-01 g(S)=  0.000E+00 retain N=  6 mean eig= 3.32
 eig:   6.706  6.706  2.230  2.230  1.011  1.011
 bond charge predicted
       N       E                     dE             d eps       ncg     rms          rms(c)
RMM:   1    -0.341216767977E+03   -0.99875E+00   -0.39627E+01  5120   0.112E+01    0.808E-01
RMM:   2    -0.340250249982E+03    0.96652E+00   -0.18290E+00  6086   0.430E+00    0.367E-01
RMM:   3    -0.340244607392E+03    0.56426E-02   -0.57825E-02  6901   0.623E-01    0.307E-01
RMM:   4    -0.340244442729E+03    0.16466E-03   -0.19488E-03  5713   0.107E-01    0.220E-01
RMM:   5    -0.340244318828E+03    0.12390E-03   -0.12122E-03  5295   0.803E-02    0.382E-02
RMM:   6    -0.340244320282E+03   -0.14548E-05   -0.12683E-04  3175   0.278E-02
  11 F= -.34024432E+03 E0= -.34024427E+03  d E =-.263022E-01
 BRION: g(F)=  0.677E-02 g(S)=  0.000E+00 retain N=  6 mean eig= 3.36
 eig:   5.908  5.908  2.801  2.801  1.374  1.374
 bond charge predicted
       N       E                     dE             d eps       ncg     rms          rms(c)
RMM:   1    -0.340516016862E+03   -0.27170E+00   -0.10887E+01  5120   0.592E+00    0.421E-01
RMM:   2    -0.340256505725E+03    0.25951E+00   -0.49450E-01  6086   0.225E+00    0.173E-01
RMM:   3    -0.340255413618E+03    0.10921E-02   -0.16020E-02  6912   0.327E-01    0.156E-01
RMM:   4    -0.340255415138E+03   -0.15205E-05   -0.60849E-04  4157   0.528E-02
  12 F= -.34025542E+03 E0= -.34025536E+03  d E =-.110949E-01
 BRION: g(F)=  0.505E-02 g(S)=  0.000E+00 retain N=  5 mean eig= 3.84
 eig:   7.414  7.414  0.953  1.701  1.701
 bond charge predicted
       N       E                     dE             d eps       ncg     rms          rms(c)
RMM:   1    -0.340456234565E+03   -0.20082E+00   -0.77906E+00  5120   0.495E+00    0.381E-01
RMM:   2    -0.340264384626E+03    0.19185E+00   -0.36380E-01  6086   0.193E+00    0.150E-01
RMM:   3    -0.340263627511E+03    0.75712E-03   -0.11512E-02  6883   0.275E-01    0.125E-01
RMM:   4    -0.340263640414E+03   -0.12903E-04   -0.46346E-04  3886   0.442E-02
  13 F= -.34026364E+03 E0= -.34026359E+03  d E =-.822528E-02
 BRION: g(F)=  0.337E-02 g(S)=  0.000E+00 retain N=  4 mean eig= 4.47
 eig:   7.286  7.286  1.645  1.645
 bond charge predicted
       N       E                     dE             d eps       ncg     rms          rms(c)
RMM:   1    -0.340558741681E+03   -0.29511E+00   -0.12617E+01  5120   0.638E+00    0.490E-01
RMM:   2    -0.340273033468E+03    0.28571E+00   -0.56589E-01  6086   0.239E+00    0.193E-01
RMM:   3    -0.340272188592E+03    0.84488E-03   -0.19831E-02  6893   0.351E-01    0.171E-01
WARNING in EDDRMM: call to ZHEGV failed, returncode =   6  3 51
RMM:   4    -0.340272209705E+03   -0.21113E-04   -0.78396E-04  4320   0.565E-02
  14 F= -.34027221E+03 E0= -.34027216E+03  d E =-.856929E-02
 BRION: g(F)=  0.214E-02 g(S)=  0.000E+00 retain N=  3 mean eig= 4.19
 eig:   5.718  5.718  1.120
 bond charge predicted
       N       E                     dE             d eps       ncg     rms          rms(c)
RMM:   1    -0.340428338453E+03   -0.15615E+00   -0.63436E+00  5120   0.451E+00    0.365E-01
RMM:   2    -0.340277489215E+03    0.15085E+00   -0.29055E-01  6086   0.171E+00    0.142E-01
RMM:   3    -0.340277014831E+03    0.47438E-03   -0.96133E-03  6849   0.249E-01    0.110E-01
RMM:   4    -0.340277030781E+03   -0.15950E-04   -0.40487E-04  3797   0.404E-02
  15 F= -.34027703E+03 E0= -.34027698E+03  d E =-.482108E-02
 BRION: g(F)=  0.169E-02 g(S)=  0.000E+00 retain N=  3 mean eig= 3.15
 eig:   1.062  4.192  4.192
 reached required accuracy - stopping structural energy minimisation
 writing wavefunctions
