 running on   32 total cores
 distrk:  each k-point on   32 cores,    1 groups
 distr:  one band on    8 cores,    4 groups
 using from now: INCAR     
 vasp.5.4.1 05Feb16 (build Dec 31 2016 05:41:53) complex                        
  
 POSCAR found type information on POSCAR  O  Sn
 POSCAR found :  2 types and      49 ions
 scaLAPACK will be used

 ----------------------------------------------------------------------------- 
|                                                                             |
|  ADVICE TO THIS USER RUNNING 'VASP/VAMP'   (HEAR YOUR MASTER'S VOICE ...):  |
|                                                                             |
|      You have a (more or less) 'large supercell' and for larger cells       |
|      it might be more efficient to use real space projection opertators     |
|      So try LREAL= Auto  in the INCAR   file.                               |
|      Mind: At the moment your POTCAR file does not contain real space       |
|       projectors, and has to be modified,  BUT if you                       |
|      want to do an extremely  accurate calculation you might also keep the  |
|      reciprocal projection scheme          (i.e. LREAL=.FALSE.)             |
|                                                                             |
 ----------------------------------------------------------------------------- 

 LDA part: xc-table for Pade appr. of Perdew
 POSCAR, INCAR and KPOINTS ok, starting setup
 FFT: planning ...
 WAVECAR not read
 entering main loop
       N       E                     dE             d eps       ncg     rms          rms(c)
RMM:   1     0.106199402324E+03    0.10620E+03   -0.24218E+05  2600   0.240E+03
RMM:   2     0.509272801588E+03    0.40307E+03   -0.46793E+04  2600   0.431E+02
RMM:   3    -0.136583192231E+03   -0.64586E+03   -0.12974E+04  2600   0.207E+02
RMM:   4    -0.273981510532E+03   -0.13740E+03   -0.54442E+03  6300   0.161E+02
RMM:   5    -0.350575716725E+03   -0.76594E+02   -0.72226E+02  6583   0.401E+01    0.433E+01
RMM:   6    -0.304820573984E+03    0.45755E+02   -0.20373E+02  6198   0.248E+01    0.177E+01
RMM:   7    -0.306744029522E+03   -0.19235E+01   -0.33807E+01  6446   0.843E+00    0.990E+00
RMM:   8    -0.307108707441E+03   -0.36468E+00   -0.81604E+00  6194   0.611E+00    0.370E+00
RMM:   9    -0.306834016088E+03    0.27469E+00   -0.29159E+00  6198   0.309E+00    0.762E-01
RMM:  10    -0.306869205819E+03   -0.35190E-01   -0.42160E-01  7276   0.805E-01    0.933E-01
RMM:  11    -0.306851636535E+03    0.17569E-01   -0.10366E-01  6196   0.473E-01    0.256E-01
RMM:  12    -0.306852685218E+03   -0.10487E-02   -0.33120E-02  6234   0.221E-01    0.778E-02
RMM:  13    -0.306852971112E+03   -0.28589E-03   -0.74649E-03  5274   0.758E-02    0.213E-02
RMM:  14    -0.306853069419E+03   -0.98307E-04   -0.20086E-03  3857   0.338E-02    0.145E-02
RMM:  15    -0.306853102277E+03   -0.32858E-04   -0.61777E-04  3220   0.189E-02
   1 F= -.30685310E+03 E0= -.30685310E+03  d E =-.306853E+03
 curvature:   0.00 expect dE= 0.000E+00 dE for cont linesearch  0.000E+00
 trial: gam= 0.00000 g(F)=  0.421E+01 g(S)=  0.000E+00 ort = 0.000E+00 (trialstep = 0.100E+01)
 search vector abs. value=  0.421E+01
 bond charge predicted
       N       E                     dE             d eps       ncg     rms          rms(c)
RMM:   1    -0.330601529302E+03   -0.23748E+02   -0.12179E+03  5554   0.517E+01    0.135E+01
RMM:   2    -0.313496866361E+03    0.17105E+02   -0.10201E+02  6194   0.238E+01    0.119E+01
RMM:   3    -0.310443902943E+03    0.30530E+01   -0.33935E+00  6732   0.381E+00    0.771E+00
RMM:   4    -0.309128583086E+03    0.13153E+01   -0.36000E+00  6207   0.310E+00    0.190E+00
RMM:   5    -0.309068538780E+03    0.60044E-01   -0.39669E-01  6215   0.948E-01    0.746E-01
RMM:   6    -0.309066125235E+03    0.24135E-02   -0.48539E-02  6301   0.377E-01    0.418E-01
RMM:   7    -0.309064274052E+03    0.18512E-02   -0.16976E-02  6462   0.198E-01    0.124E-01
RMM:   8    -0.309064329824E+03   -0.55773E-04   -0.16434E-03  5231   0.688E-02    0.357E-02
RMM:   9    -0.309064323982E+03    0.58429E-05   -0.12119E-04  3339   0.299E-02
   2 F= -.30906432E+03 E0= -.30906432E+03  d E =-.221122E+01
 trial-energy change:   -2.211222  1 .order   -2.188803   -4.209826   -0.167781
 step:   1.0401(harm=  1.0415)  dis= 0.17328  next Energy=  -309.067691 (dE=-0.221E+01)
 bond charge predicted
       N       E                     dE             d eps       ncg     rms          rms(c)
RMM:   1    -0.309206111240E+03   -0.14178E+00   -0.32277E+00  5287   0.246E+00    0.257E-01
RMM:   2    -0.309069634081E+03    0.13648E+00   -0.23158E-01  6160   0.134E+00    0.111E-01
RMM:   3    -0.309067742778E+03    0.18913E-02   -0.55135E-03  5731   0.187E-01    0.669E-02
RMM:   4    -0.309067688245E+03    0.54533E-04   -0.31362E-04  4000   0.423E-02
   3 F= -.30906769E+03 E0= -.30906767E+03  d E =-.221459E+01
 curvature:  -0.52 expect dE=-0.883E+00 dE for cont linesearch -0.674E-07
 trial: gam= 0.40332 g(F)=  0.170E+01 g(S)=  0.000E+00 ort =-0.738E-03 (trialstep = 0.101E+01)
 search vector abs. value=  0.238E+01
 bond charge predicted
       N       E                     dE             d eps       ncg     rms          rms(c)
RMM:   1    -0.320794350100E+03   -0.11727E+02   -0.75966E+02  5797   0.539E+01    0.760E+00
RMM:   2    -0.309699418281E+03    0.11095E+02   -0.36917E+01  6190   0.186E+01    0.413E+00
RMM:   3    -0.309497585438E+03    0.20183E+00   -0.29307E+00  6994   0.377E+00    0.294E+00
RMM:   4    -0.309442008496E+03    0.55577E-01   -0.14493E-01  6143   0.965E-01    0.185E+00
RMM:   5    -0.309417849303E+03    0.24159E-01   -0.16169E-01  6135   0.777E-01    0.233E-01
RMM:   6    -0.309417780173E+03    0.69130E-04   -0.10499E-02  6867   0.219E-01    0.171E-01
RMM:   7    -0.309417145791E+03    0.63438E-03   -0.21749E-03  5460   0.898E-02    0.584E-02
RMM:   8    -0.309417155264E+03   -0.94727E-05   -0.27085E-04  4119   0.353E-02
   4 F= -.30941716E+03 E0= -.30941712E+03  d E =-.349467E+00
 trial-energy change:   -0.349467  1 .order   -0.356894   -1.710484    0.996697
 step:   0.6330(harm=  0.6369)  dis= 0.05759  next Energy=  -309.602930 (dE=-0.535E+00)
 bond charge predicted
       N       E                     dE             d eps       ncg     rms          rms(c)
RMM:   1    -0.313460270404E+03   -0.40431E+01   -0.12854E+02  5433   0.199E+01    0.199E+00
RMM:   2    -0.309616245821E+03    0.38440E+01   -0.80977E+00  6180   0.904E+00    0.794E-01
RMM:   3    -0.309603096793E+03    0.13149E-01   -0.34037E-01  7024   0.136E+00    0.782E-01
RMM:   4    -0.309602277568E+03    0.81923E-03   -0.81354E-03  6241   0.235E-01    0.577E-01
RMM:   5    -0.309600878918E+03    0.13986E-02   -0.62136E-03  6152   0.201E-01    0.109E-01
RMM:   6    -0.309600833120E+03    0.45798E-04   -0.96408E-04  5572   0.665E-02
   5 F= -.30960083E+03 E0= -.30960081E+03  d E =-.533145E+00
 curvature:  -0.45 expect dE=-0.218E+00 dE for cont linesearch -0.239E-04
 trial: gam= 0.25268 g(F)=  0.487E+00 g(S)=  0.000E+00 ort = 0.113E-01 (trialstep = 0.933E+00)
 search vector abs. value=  0.644E+00
 bond charge predicted
       N       E                     dE             d eps       ncg     rms          rms(c)
RMM:   1    -0.315897455676E+03   -0.62966E+01   -0.20948E+02  5384   0.246E+01    0.287E+00
RMM:   2    -0.309840495531E+03    0.60570E+01   -0.13238E+01  6181   0.115E+01    0.105E+00
RMM:   3    -0.309819536472E+03    0.20959E-01   -0.61847E-01  6986   0.175E+00    0.106E+00
WARNING in EDDRMM: call to ZHEGV failed, returncode =   6  3 43
RMM:   4    -0.309819925994E+03   -0.38952E-03   -0.26573E-02  6198   0.350E-01    0.793E-01
RMM:   5    -0.309818320974E+03    0.16050E-02   -0.12132E-02  6175   0.269E-01    0.154E-01
RMM:   6    -0.309818325209E+03   -0.42355E-05   -0.12400E-03  5847   0.778E-02    0.118E-01
RMM:   7    -0.309818313131E+03    0.12078E-04   -0.10586E-04  3095   0.272E-02
   6 F= -.30981831E+03 E0= -.30981808E+03  d E =-.217480E+00
 trial-energy change:   -0.217480  1 .order   -0.221793   -0.456807    0.013220
 step:   0.9053(harm=  0.9068)  dis= 0.04825  next Energy=  -309.818510 (dE=-0.218E+00)
 bond charge predicted
       N       E                     dE             d eps       ncg     rms          rms(c)
RMM:   1    -0.309824110306E+03   -0.57851E-02   -0.18546E-01  5332   0.720E-01    0.103E-01
RMM:   2    -0.309818500614E+03    0.56097E-02   -0.11810E-02  5886   0.327E-01    0.371E-02
RMM:   3    -0.309818468674E+03    0.31941E-04   -0.52943E-04  4249   0.532E-02
   7 F= -.30981847E+03 E0= -.30981825E+03  d E =-.217636E+00
 curvature:  -0.59 expect dE=-0.146E+00 dE for cont linesearch -0.275E-04
 trial: gam= 0.48801 g(F)=  0.245E+00 g(S)=  0.000E+00 ort = 0.546E-02 (trialstep = 0.927E+00)
 search vector abs. value=  0.404E+00
 bond charge predicted
       N       E                     dE             d eps       ncg     rms          rms(c)
RMM:   1    -0.313490543263E+03   -0.36720E+01   -0.12630E+02  5212   0.197E+01    0.206E+00
RMM:   2    -0.309992625565E+03    0.34979E+01   -0.76421E+00  6181   0.902E+00    0.841E-01
RMM:   3    -0.309975392702E+03    0.17233E-01   -0.33409E-01  7012   0.138E+00    0.752E-01
RMM:   4    -0.309974602568E+03    0.79013E-03   -0.82740E-03  6180   0.255E-01    0.547E-01
RMM:   5    -0.309974025503E+03    0.57707E-03   -0.52383E-03  6145   0.186E-01    0.968E-02
RMM:   6    -0.309974056587E+03   -0.31084E-04   -0.55218E-04  5016   0.558E-02
   8 F= -.30997406E+03 E0= -.30997388E+03  d E =-.155588E+00
 trial-energy change:   -0.155588  1 .order   -0.154967   -0.229684   -0.080250
 step:   1.4074(harm=  1.4256)  dis= 0.05184  next Energy=  -309.994905 (dE=-0.176E+00)
 bond charge predicted
       N       E                     dE             d eps       ncg     rms          rms(c)
RMM:   1    -0.310888066203E+03   -0.91404E+00   -0.33329E+01  5202   0.102E+01    0.990E-01
RMM:   2    -0.310001254278E+03    0.88681E+00   -0.19177E+00  6181   0.446E+00    0.363E-01
RMM:   3    -0.309997502949E+03    0.37513E-02   -0.80646E-02  7007   0.683E-01    0.365E-01
RMM:   4    -0.309997398285E+03    0.10466E-03   -0.19488E-03  5654   0.117E-01    0.274E-01
RMM:   5    -0.309997322279E+03    0.76006E-04   -0.10728E-03  5751   0.846E-02    0.779E-02
RMM:   6    -0.309997324452E+03   -0.21724E-05   -0.11923E-04  3166   0.272E-02
   9 F= -.30999732E+03 E0= -.30999718E+03  d E =-.178856E+00
 curvature:  -1.16 expect dE=-0.157E+00 dE for cont linesearch -0.925E-04
 trial: gam= 0.52392 g(F)=  0.135E+00 g(S)=  0.000E+00 ort = 0.567E-02 (trialstep = 0.102E+01)
 search vector abs. value=  0.252E+00
 bond charge predicted
       N       E                     dE             d eps       ncg     rms          rms(c)
RMM:   1    -0.314266900437E+03   -0.42696E+01   -0.11215E+02  5227   0.174E+01    0.160E+00
RMM:   2    -0.310104870486E+03    0.41620E+01   -0.75281E+00  6181   0.862E+00    0.716E-01
RMM:   3    -0.310072841964E+03    0.32029E-01   -0.18963E-01  7015   0.116E+00    0.519E-01
RMM:   4    -0.310071137416E+03    0.17045E-02   -0.65559E-03  6159   0.217E-01    0.343E-01
RMM:   5    -0.310070516097E+03    0.62132E-03   -0.42216E-03  6110   0.159E-01    0.432E-02
RMM:   6    -0.310070523821E+03   -0.77237E-05   -0.39113E-04  4434   0.448E-02
  10 F= -.31007052E+03 E0= -.31007008E+03  d E =-.731994E-01
 trial-energy change:   -0.073199  1 .order   -0.072171   -0.141573   -0.002768
 step:   1.0430(harm=  1.0439)  dis= 0.03119  next Energy=  -310.070550 (dE=-0.732E-01)
 bond charge predicted
       N       E                     dE             d eps       ncg     rms          rms(c)
RMM:   1    -0.310072078923E+03   -0.15628E-02   -0.41367E-02  5250   0.337E-01    0.267E-02
RMM:   2    -0.310070581561E+03    0.14974E-02   -0.28061E-03  5678   0.171E-01    0.134E-02
RMM:   3    -0.310070562424E+03    0.19137E-04   -0.38545E-05  3119   0.263E-02
  11 F= -.31007056E+03 E0= -.31007011E+03  d E =-.732380E-01
 curvature:  -0.95 expect dE=-0.861E-01 dE for cont linesearch -0.180E-05
 trial: gam= 0.70016 g(F)=  0.907E-01 g(S)=  0.000E+00 ort = 0.691E-03 (trialstep = 0.103E+01)
 search vector abs. value=  0.215E+00
 bond charge predicted
       N       E                     dE             d eps       ncg     rms          rms(c)
RMM:   1    -0.312966466971E+03   -0.28959E+01   -0.88417E+01  5200   0.164E+01    0.139E+00
RMM:   2    -0.310161090277E+03    0.28054E+01   -0.52715E+00  6181   0.729E+00    0.557E-01
RMM:   3    -0.310137970466E+03    0.23120E-01   -0.15971E-01  6992   0.107E+00    0.466E-01
RMM:   4    -0.310137142311E+03    0.82815E-03   -0.47965E-03  6187   0.185E-01    0.334E-01
RMM:   5    -0.310136864644E+03    0.27767E-03   -0.24871E-03  6099   0.119E-01    0.383E-02
RMM:   6    -0.310136869896E+03   -0.52511E-05   -0.24530E-04  3484   0.364E-02
  12 F= -.31013687E+03 E0= -.31013663E+03  d E =-.663075E-01
 trial-energy change:   -0.066307  1 .order   -0.065452   -0.093641   -0.037263
 step:   1.6211(harm=  1.7064)  dis= 0.03427  next Energy=  -310.147803 (dE=-0.772E-01)
 bond charge predicted
       N       E                     dE             d eps       ncg     rms          rms(c)
RMM:   1    -0.311077990123E+03   -0.94113E+00   -0.29386E+01  5200   0.945E+00    0.785E-01
RMM:   2    -0.310156713886E+03    0.92128E+00   -0.17162E+00  6181   0.416E+00    0.295E-01
RMM:   3    -0.310150151426E+03    0.65625E-02   -0.51113E-02  6985   0.605E-01    0.266E-01
RMM:   4    -0.310149945347E+03    0.20608E-03   -0.15143E-03  5732   0.102E-01    0.195E-01
RMM:   5    -0.310149865707E+03    0.79640E-04   -0.76722E-04  5268   0.688E-02
  13 F= -.31014987E+03 E0= -.31014971E+03  d E =-.793033E-01
 curvature:  -1.98 expect dE=-0.164E+00 dE for cont linesearch -0.244E-03
 trial: gam= 0.83769 g(F)=  0.826E-01 g(S)=  0.000E+00 ort = 0.514E-02 (trialstep = 0.102E+01)
 search vector abs. value=  0.242E+00
 bond charge predicted
       N       E                     dE             d eps       ncg     rms          rms(c)
RMM:   1    -0.312727017652E+03   -0.25771E+01   -0.91039E+01  5210   0.175E+01    0.161E+00
RMM:   2    -0.310211738930E+03    0.25153E+01   -0.52802E+00  6180   0.754E+00    0.574E-01
RMM:   3    -0.310207452678E+03    0.42863E-02   -0.21847E-01  6981   0.115E+00    0.613E-01
RMM:   4    -0.310207301712E+03    0.15097E-03   -0.51940E-03  6163   0.202E-01    0.463E-01
RMM:   5    -0.310207062683E+03    0.23903E-03   -0.28083E-03  6102   0.126E-01    0.129E-01
RMM:   6    -0.310207062179E+03    0.50395E-06   -0.36519E-04  4693   0.472E-02
  14 F= -.31020706E+03 E0= -.31020697E+03  d E =-.571965E-01
 trial-energy change:   -0.057196  1 .order   -0.055066   -0.088497   -0.021635
 step:   1.2838(harm=  1.3478)  dis= 0.02812  next Energy=  -310.209920 (dE=-0.601E-01)
 bond charge predicted
       N       E                     dE             d eps       ncg     rms          rms(c)
RMM:   1    -0.310374915649E+03   -0.16785E+00   -0.61194E+00  5205   0.454E+00    0.434E-01
RMM:   2    -0.310211337678E+03    0.16358E+00   -0.34305E-01  6182   0.190E+00    0.140E-01
RMM:   3    -0.310211185742E+03    0.15194E-03   -0.13911E-02  6953   0.288E-01    0.146E-01
RMM:   4    -0.310211185447E+03    0.29469E-06   -0.34024E-04  4195   0.480E-02
  15 F= -.31021119E+03 E0= -.31021111E+03  d E =-.613197E-01
 curvature:  -1.81 expect dE=-0.951E-01 dE for cont linesearch -0.206E-03
 trial: gam= 0.66329 g(F)=  0.526E-01 g(S)=  0.000E+00 ort = 0.525E-02 (trialstep = 0.107E+01)
 search vector abs. value=  0.166E+00
 bond charge predicted
       N       E                     dE             d eps       ncg     rms          rms(c)
RMM:   1    -0.312407918256E+03   -0.21967E+01   -0.71889E+01  5200   0.150E+01    0.138E+00
RMM:   2    -0.310250285219E+03    0.21576E+01   -0.41387E+00  6180   0.660E+00    0.521E-01
RMM:   3    -0.310248190768E+03    0.20945E-02   -0.13718E-01  6977   0.893E-01    0.477E-01
RMM:   4    -0.310248075947E+03    0.11482E-03   -0.34606E-03  6146   0.154E-01    0.350E-01
RMM:   5    -0.310247853184E+03    0.22276E-03   -0.22494E-03  6055   0.120E-01    0.798E-02
RMM:   6    -0.310247852560E+03    0.62402E-06   -0.22989E-04  3522   0.365E-02
  16 F= -.31024785E+03 E0= -.31024784E+03  d E =-.366671E-01
 trial-energy change:   -0.036667  1 .order   -0.035240   -0.060093   -0.010387
 step:   1.2577(harm=  1.2953)  dis= 0.02483  next Energy=  -310.248763 (dE=-0.376E-01)
 bond charge predicted
       N       E                     dE             d eps       ncg     rms          rms(c)
RMM:   1    -0.310312346808E+03   -0.64494E-01   -0.21568E+00  5200   0.261E+00    0.230E-01
RMM:   2    -0.310249227509E+03    0.63119E-01   -0.12177E-01  6179   0.113E+00    0.793E-02
RMM:   3    -0.310249173096E+03    0.54412E-04   -0.40993E-03  6557   0.153E-01    0.824E-02
RMM:   4    -0.310249166876E+03    0.62208E-05   -0.83175E-05  3296   0.299E-02
  17 F= -.31024917E+03 E0= -.31024915E+03  d E =-.379814E-01
 curvature:  -1.86 expect dE=-0.721E-01 dE for cont linesearch -0.754E-04
 trial: gam= 0.77164 g(F)=  0.387E-01 g(S)=  0.000E+00 ort = 0.259E-02 (trialstep = 0.111E+01)
 search vector abs. value=  0.142E+00
 bond charge predicted
       N       E                     dE             d eps       ncg     rms          rms(c)
RMM:   1    -0.312232464641E+03   -0.19833E+01   -0.66134E+01  5219   0.138E+01    0.122E+00
RMM:   2    -0.310285148084E+03    0.19473E+01   -0.36092E+00  6180   0.597E+00    0.474E-01
RMM:   3    -0.310277182689E+03    0.79654E-02   -0.10688E-01  7014   0.799E-01    0.403E-01
RMM:   4    -0.310276944460E+03    0.23823E-03   -0.28951E-03  6049   0.130E-01    0.292E-01
RMM:   5    -0.310276750406E+03    0.19405E-03   -0.15237E-03  5486   0.857E-02    0.410E-02
RMM:   6    -0.310276749665E+03    0.74127E-06   -0.14881E-04  3319   0.311E-02
  18 F= -.31027675E+03 E0= -.31027674E+03  d E =-.275828E-01
 trial-energy change:   -0.027583  1 .order   -0.026775   -0.045082   -0.008468
 step:   1.3299(harm=  1.3651)  dis= 0.03172  next Energy=  -310.277601 (dE=-0.284E-01)
 bond charge predicted
       N       E                     dE             d eps       ncg     rms          rms(c)
RMM:   1    -0.310355921817E+03   -0.79171E-01   -0.26419E+00  5218   0.276E+00    0.233E-01
RMM:   2    -0.310278248701E+03    0.77673E-01   -0.14265E-01  6184   0.118E+00    0.814E-02
RMM:   3    -0.310277970568E+03    0.27813E-03   -0.40956E-03  6454   0.157E-01    0.783E-02
RMM:   4    -0.310277962108E+03    0.84598E-05   -0.12679E-04  3523   0.321E-02
  19 F= -.31027796E+03 E0= -.31027795E+03  d E =-.287952E-01
 curvature:  -2.33 expect dE=-0.674E-01 dE for cont linesearch -0.484E-04
 trial: gam= 0.72039 g(F)=  0.289E-01 g(S)=  0.000E+00 ort = 0.172E-02 (trialstep = 0.115E+01)
 search vector abs. value=  0.105E+00
 bond charge predicted
       N       E                     dE             d eps       ncg     rms          rms(c)
RMM:   1    -0.311845125277E+03   -0.15672E+01   -0.53119E+01  5200   0.126E+01    0.103E+00
RMM:   2    -0.310300449411E+03    0.15447E+01   -0.28807E+00  6180   0.545E+00    0.450E-01
RMM:   3    -0.310294565788E+03    0.58836E-02   -0.86265E-02  6972   0.734E-01    0.378E-01
RMM:   4    -0.310294228337E+03    0.33745E-03   -0.26115E-03  6065   0.126E-01    0.270E-01
RMM:   5    -0.310293964153E+03    0.26418E-03   -0.19543E-03  6021   0.108E-01    0.422E-02
RMM:   6    -0.310293963391E+03    0.76200E-06   -0.15420E-04  3321   0.298E-02
  20 F= -.31029396E+03 E0= -.31029396E+03  d E =-.160013E-01
 trial-energy change:   -0.016001  1 .order   -0.015357   -0.034746    0.004032
 step:   1.0430(harm=  1.0331)  dis= 0.02067  next Energy=  -310.294155 (dE=-0.162E-01)
 bond charge predicted
       N       E                     dE             d eps       ncg     rms          rms(c)
RMM:   1    -0.310307534803E+03   -0.13571E-01   -0.47512E-01  5200   0.121E+00    0.978E-02
RMM:   2    -0.310294115663E+03    0.13419E-01   -0.24519E-02  6180   0.500E-01    0.362E-02
RMM:   3    -0.310294082566E+03    0.33097E-04   -0.70721E-04  5196   0.658E-02
  21 F= -.31029408E+03 E0= -.31029408E+03  d E =-.161205E-01
 curvature:  -1.78 expect dE=-0.280E-01 dE for cont linesearch -0.579E-04
 trial: gam= 0.54901 g(F)=  0.157E-01 g(S)=  0.000E+00 ort = 0.184E-02 (trialstep = 0.113E+01)
 search vector abs. value=  0.493E-01
 bond charge predicted
       N       E                     dE             d eps       ncg     rms          rms(c)
RMM:   1    -0.311009676371E+03   -0.71556E+00   -0.24151E+01  5200   0.839E+00    0.651E-01
RMM:   2    -0.310309101919E+03    0.70057E+00   -0.12512E+00  6180   0.351E+00    0.264E-01
RMM:   3    -0.310305573000E+03    0.35289E-02   -0.35441E-02  6972   0.477E-01    0.224E-01
RMM:   4    -0.310305463362E+03    0.10964E-03   -0.11002E-03  5219   0.766E-02    0.161E-01
RMM:   5    -0.310305379483E+03    0.83879E-04   -0.61645E-04  4912   0.557E-02
  22 F= -.31030538E+03 E0= -.31030537E+03  d E =-.112969E-01
 trial-energy change:   -0.011297  1 .order   -0.011455   -0.018878   -0.004031
 step:   1.4380(harm=  1.4380)  dis= 0.01961  next Energy=  -310.306084 (dE=-0.120E-01)
 bond charge predicted
       N       E                     dE             d eps       ncg     rms          rms(c)
RMM:   1    -0.310356287957E+03   -0.50825E-01   -0.17643E+00  5200   0.228E+00    0.178E-01
RMM:   2    -0.310306278677E+03    0.50009E-01   -0.89777E-02  6180   0.950E-01    0.685E-02
RMM:   3    -0.310306075698E+03    0.20298E-03   -0.25764E-03  6198   0.128E-01    0.591E-02
RMM:   4    -0.310306067021E+03    0.86762E-05   -0.53543E-05  3216   0.278E-02
  23 F= -.31030607E+03 E0= -.31030606E+03  d E =-.119845E-01
 curvature:  -2.12 expect dE=-0.396E-01 dE for cont linesearch -0.241E-04
 trial: gam= 1.13527 g(F)=  0.186E-01 g(S)=  0.000E+00 ort = 0.748E-03 (trialstep = 0.701E+00)
 search vector abs. value=  0.839E-01
 bond charge predicted
       N       E                     dE             d eps       ncg     rms          rms(c)
RMM:   1    -0.310798389373E+03   -0.49231E+00   -0.16037E+01  5200   0.660E+00    0.486E-01
RMM:   2    -0.310319062653E+03    0.47933E+00   -0.80518E-01  6180   0.278E+00    0.225E-01
RMM:   3    -0.310316328684E+03    0.27340E-02   -0.17995E-02  6958   0.347E-01    0.161E-01
RMM:   4    -0.310316201593E+03    0.12709E-03   -0.77286E-04  4764   0.615E-02    0.106E-01
RMM:   5    -0.310316151216E+03    0.50377E-04   -0.40066E-04  4706   0.451E-02
  24 F= -.31031615E+03 E0= -.31031615E+03  d E =-.100842E-01
 trial-energy change:   -0.010084  1 .order   -0.010181   -0.013660   -0.006701
 step:   1.3757(harm=  1.3757)  dis= 0.03276  next Energy=  -310.319474 (dE=-0.134E-01)
 bond charge predicted
       N       E                     dE             d eps       ncg     rms          rms(c)
RMM:   1    -0.310776476441E+03   -0.46027E+00   -0.14993E+01  5200   0.636E+00    0.466E-01
RMM:   2    -0.310322459555E+03    0.45402E+00   -0.76131E-01  6180   0.270E+00    0.214E-01
RMM:   3    -0.310319882712E+03    0.25768E-02   -0.16811E-02  6960   0.335E-01    0.158E-01
RMM:   4    -0.310319768624E+03    0.11409E-03   -0.70386E-04  4698   0.593E-02    0.104E-01
RMM:   5    -0.310319721782E+03    0.46842E-04   -0.37378E-04  4672   0.443E-02
  25 F= -.31031972E+03 E0= -.31031972E+03  d E =-.136548E-01
 curvature:  -2.96 expect dE=-0.450E-01 dE for cont linesearch -0.116E-04
 trial: gam= 0.79100 g(F)=  0.152E-01 g(S)=  0.000E+00 ort = 0.573E-03 (trialstep = 0.836E+00)
 search vector abs. value=  0.686E-01
 bond charge predicted
       N       E                     dE             d eps       ncg     rms          rms(c)
RMM:   1    -0.310858259800E+03   -0.53849E+00   -0.18425E+01  5200   0.716E+00    0.508E-01
RMM:   2    -0.310331952341E+03    0.52631E+00   -0.89463E-01  6180   0.294E+00    0.256E-01
RMM:   3    -0.310328808214E+03    0.31441E-02   -0.20652E-02  6964   0.372E-01    0.182E-01
RMM:   4    -0.310328627857E+03    0.18036E-03   -0.86963E-04  4990   0.675E-02    0.118E-01
RMM:   5    -0.310328552661E+03    0.75196E-04   -0.51608E-04  4857   0.514E-02
  26 F= -.31032855E+03 E0= -.31032855E+03  d E =-.883088E-02
 trial-energy change:   -0.008831  1 .order   -0.008775   -0.013070   -0.004481
 step:   1.2718(harm=  1.2718)  dis= 0.03055  next Energy=  -310.329666 (dE=-0.994E-02)
 bond charge predicted
       N       E                     dE             d eps       ncg     rms          rms(c)
RMM:   1    -0.310471178905E+03   -0.14255E+00   -0.49904E+00  5200   0.374E+00    0.259E-01
RMM:   2    -0.310330566599E+03    0.14061E+00   -0.23867E-01  6179   0.153E+00    0.121E-01
RMM:   3    -0.310329811166E+03    0.75543E-03   -0.56993E-03  6715   0.192E-01    0.924E-02
RMM:   4    -0.310329776720E+03    0.34446E-04   -0.27786E-04  3839   0.373E-02
  27 F= -.31032978E+03 E0= -.31032977E+03  d E =-.100549E-01
 curvature:  -2.79 expect dE=-0.341E-01 dE for cont linesearch -0.100E-05
 trial: gam= 0.83045 g(F)=  0.122E-01 g(S)=  0.000E+00 ort =-0.157E-03 (trialstep = 0.923E+00)
 search vector abs. value=  0.593E-01
 bond charge predicted
       N       E                     dE             d eps       ncg     rms          rms(c)
RMM:   1    -0.310849864311E+03   -0.52005E+00   -0.18933E+01  5200   0.743E+00    0.532E-01
RMM:   2    -0.310338269211E+03    0.51160E+00   -0.89413E-01  6180   0.294E+00    0.244E-01
RMM:   3    -0.310336345696E+03    0.19235E-02   -0.23097E-02  6960   0.375E-01    0.196E-01
RMM:   4    -0.310336259432E+03    0.86265E-04   -0.81120E-04  4753   0.632E-02
  28 F= -.31033626E+03 E0= -.31033626E+03  d E =-.648271E-02
 trial-energy change:   -0.006483  1 .order   -0.006239   -0.011156   -0.001321
 step:   1.0470(harm=  1.0470)  dis= 0.01920  next Energy=  -310.336104 (dE=-0.633E-02)
 bond charge predicted
       N       E                     dE             d eps       ncg     rms          rms(c)
RMM:   1    -0.310345633160E+03   -0.92875E-02   -0.33341E-01  5200   0.989E-01    0.807E-02
RMM:   2    -0.310336323527E+03    0.93096E-02   -0.16427E-02  6055   0.399E-01    0.352E-02
RMM:   3    -0.310336290505E+03    0.33022E-04   -0.50119E-04  4487   0.546E-02
  29 F= -.31033629E+03 E0= -.31033629E+03  d E =-.651378E-02
 curvature:  -2.57 expect dE=-0.198E-01 dE for cont linesearch -0.202E-04
 trial: gam= 0.61878 g(F)=  0.770E-02 g(S)=  0.000E+00 ort =-0.682E-03 (trialstep = 0.948E+00)
 search vector abs. value=  0.295E-01
 bond charge predicted
       N       E                     dE             d eps       ncg     rms          rms(c)
RMM:   1    -0.310635293123E+03   -0.29897E+00   -0.10232E+01  5200   0.530E+00    0.354E-01
RMM:   2    -0.310342632400E+03    0.29266E+00   -0.48502E-01  6180   0.215E+00    0.168E-01
RMM:   3    -0.310341310526E+03    0.13219E-02   -0.10524E-02  6894   0.260E-01    0.130E-01
RMM:   4    -0.310341249084E+03    0.61442E-04   -0.50651E-04  4183   0.461E-02
  30 F= -.31034125E+03 E0= -.31034125E+03  d E =-.495858E-02
 trial-energy change:   -0.004959  1 .order   -0.004719   -0.006902   -0.002536
 step:   1.4982(harm=  1.4982)  dis= 0.01869  next Energy=  -310.341746 (dE=-0.546E-02)
 bond charge predicted
       N       E                     dE             d eps       ncg     rms          rms(c)
RMM:   1    -0.310443557851E+03   -0.10225E+00   -0.34519E+00  5200   0.307E+00    0.204E-01
RMM:   2    -0.310342449461E+03    0.10111E+00   -0.16732E-01  6180   0.126E+00    0.928E-02
RMM:   3    -0.310342001702E+03    0.44776E-03   -0.36447E-03  6483   0.153E-01    0.734E-02
WARNING in EDDRMM: call to ZHEGV failed, returncode =   6  3 50
RMM:   4    -0.310341988761E+03    0.12941E-04   -0.20332E-04  3648   0.314E-02
  31 F= -.31034199E+03 E0= -.31034199E+03  d E =-.569826E-02
 curvature:  -3.04 expect dE=-0.149E-01 dE for cont linesearch -0.423E-05
 trial: gam= 0.64496 g(F)=  0.492E-02 g(S)=  0.000E+00 ort =-0.203E-03 (trialstep = 0.106E+01)
 search vector abs. value=  0.169E-01
 bond charge predicted
       N       E                     dE             d eps       ncg     rms          rms(c)
RMM:   1    -0.310561878225E+03   -0.21988E+00   -0.73698E+00  5200   0.449E+00    0.306E-01
RMM:   2    -0.310345876379E+03    0.21600E+00   -0.35923E-01  6180   0.186E+00    0.145E-01
RMM:   3    -0.310344957907E+03    0.91847E-03   -0.75972E-03  6850   0.221E-01    0.106E-01
RMM:   4    -0.310344919741E+03    0.38166E-04   -0.40415E-04  3936   0.407E-02
  32 F= -.31034492E+03 E0= -.31034492E+03  d E =-.293098E-02
 trial-energy change:   -0.002931  1 .order   -0.002818   -0.005063   -0.000573
 step:   1.1928(harm=  1.1928)  dis= 0.01061  next Energy=  -310.344843 (dE=-0.285E-02)
 bond charge predicted
       N       E                     dE             d eps       ncg     rms          rms(c)
RMM:   1    -0.310349475622E+03   -0.45177E-02   -0.12698E-01  5200   0.567E-01    0.415E-02
RMM:   2    -0.310344981958E+03    0.44937E-02   -0.74842E-03  5745   0.263E-01    0.194E-02
RMM:   3    -0.310344953810E+03    0.28148E-04   -0.18639E-04  3910   0.356E-02
  33 F= -.31034495E+03 E0= -.31034495E+03  d E =-.296505E-02
 curvature:  -2.11 expect dE=-0.707E-02 dE for cont linesearch -0.331E-06
 trial: gam= 0.67974 g(F)=  0.335E-02 g(S)=  0.000E+00 ort =-0.515E-04 (trialstep = 0.108E+01)
 search vector abs. value=  0.111E-01
 bond charge predicted
       N       E                     dE             d eps       ncg     rms          rms(c)
RMM:   1    -0.310481343938E+03   -0.13636E+00   -0.49204E+00  5200   0.384E+00    0.272E-01
RMM:   2    -0.310347111406E+03    0.13423E+00   -0.23554E-01  6180   0.154E+00    0.124E-01
RMM:   3    -0.310346796641E+03    0.31476E-03   -0.62083E-03  6789   0.191E-01    0.101E-01
RMM:   4    -0.310346778196E+03    0.18445E-04   -0.27625E-04  3650   0.352E-02
  34 F= -.31034678E+03 E0= -.31034678E+03  d E =-.182439E-02
 trial-energy change:   -0.001824  1 .order   -0.001632   -0.003596    0.000332
 step:   0.9931(harm=  0.9931)  dis= 0.00509  next Energy=  -310.346600 (dE=-0.165E-02)
 bond charge predicted
       N       E                     dE             d eps       ncg     rms          rms(c)
RMM:   1    -0.310347484407E+03   -0.68777E-03   -0.34467E-02  5201   0.332E-01    0.166E-02
RMM:   2    -0.310346760726E+03    0.72368E-03   -0.13705E-03  5430   0.119E-01    0.951E-03
RMM:   3    -0.310346753899E+03    0.68271E-05   -0.49559E-05  3094   0.182E-02
  35 F= -.31034675E+03 E0= -.31034675E+03  d E =-.180009E-02
 curvature:  -1.66 expect dE=-0.324E-02 dE for cont linesearch -0.186E-04
 trial: gam= 0.53317 g(F)=  0.195E-02 g(S)=  0.000E+00 ort = 0.353E-03 (trialstep = 0.107E+01)
 search vector abs. value=  0.548E-02
 bond charge predicted
       N       E                     dE             d eps       ncg     rms          rms(c)
RMM:   1    -0.310414420483E+03   -0.67660E-01   -0.23588E+00  5200   0.270E+00    0.201E-01
RMM:   2    -0.310348299407E+03    0.66121E-01   -0.11891E-01  6180   0.109E+00    0.794E-02
RMM:   3    -0.310348219977E+03    0.79430E-04   -0.33782E-03  6411   0.142E-01    0.734E-02
RMM:   4    -0.310348213782E+03    0.61953E-05   -0.12515E-04  3276   0.283E-02
  36 F= -.31034821E+03 E0= -.31034821E+03  d E =-.145988E-02
 trial-energy change:   -0.001460  1 .order   -0.001427   -0.002277   -0.000576
 step:   1.4276(harm=  1.4276)  dis= 0.00514  next Energy=  -310.348278 (dE=-0.152E-02)
 reached required accuracy - stopping structural energy minimisation
 writing wavefunctions
