 vasp.5.4.1 05Feb16 (build Dec 31 2016 05:41:53) complex                        
  
 executed on           IFC91_ompi date 2017.08.16  00:47:00
 running on   32 total cores
 distrk:  each k-point on   32 cores,    1 groups
 distr:  one band on NCORES_PER_BAND=   8 cores,    4 groups


--------------------------------------------------------------------------------------------------------


 INCAR:
 POTCAR:    PAW_PBE O 08Apr2002                   
 POTCAR:    PAW_PBE Sn_d 06Sep2000                
 POTCAR:    PAW_PBE O 08Apr2002                   
   VRHFIN =O: s2p4                                                              
   LEXCH  = PE                                                                  
   EATOM  =   432.3788 eV,   31.7789 Ry                                         
                                                                                
   TITEL  = PAW_PBE O 08Apr2002                                                 
   LULTRA =        F    use ultrasoft PP ?                                      
   IUNSCR =        1    unscreen: 0-lin 1-nonlin 2-no                           
   RPACOR =    1.200    partial core radius                                     
   POMASS =   16.000; ZVAL   =    6.000    mass and valenz                      
   RCORE  =    1.520    outmost cutoff radius                                   
   RWIGS  =    1.550; RWIGS  =    0.820    wigner-seitz radius (au A)           
   ENMAX  =  400.000; ENMIN  =  300.000 eV                                      
   ICORE  =        2    local potential                                         
   LCOR   =        T    correct aug charges                                     
   LPAW   =        T    paw PP                                                  
   EAUG   =  605.392                                                            
   DEXC   =    0.000                                                            
   RMAX   =    1.553    core radius for proj-oper                               
   RAUG   =    1.300    factor for augmentation sphere                          
   RDEP   =    1.550    radius for radial grids                                 
   RDEPT  =    1.329    core radius for aug-charge                              
                                                                                
   Atomic configuration                                                         
    4 entries                                                                   
     n  l   j            E        occ.                                          
     1  0  0.50      -514.6923   2.0000                                         
     2  0  0.50       -23.9615   2.0000                                         
     2  1  0.50        -9.0305   4.0000                                         
     3  2  1.50        -9.5241   0.0000                                         
   Description                                                                  
     l       E           TYP  RCUT    TYP  RCUT                                 
     0    -23.9615318     23  1.200                                             
     0     -9.5240782     23  1.200                                             
     1     -9.0304911     23  1.520                                             
     1      8.1634956     23  1.520                                             
     2     -9.5240782      7  1.500                                             
  local pseudopotential read in
  partial core-charges read in
  partial kinetic energy density read in
  kinetic energy density of atom read in
  atomic valenz-charges read in
  non local Contribution for L=           0  read in
    real space projection operators read in
  non local Contribution for L=           0  read in
    real space projection operators read in
  non local Contribution for L=           1  read in
    real space projection operators read in
  non local Contribution for L=           1  read in
    real space projection operators read in
    PAW grid and wavefunctions read in
 
   number of l-projection  operators is LMAX  =           4
   number of lm-projection operators is LMMAX =           8
 
 POTCAR:    PAW_PBE Sn_d 06Sep2000                
   VRHFIN =Sn: s2p2                                                             
   LEXCH  = PE                                                                  
   EATOM  =  1893.1092 eV,  139.1396 Ry                                         
                                                                                
   TITEL  = PAW_PBE Sn_d 06Sep2000                                              
   LULTRA =        F    use ultrasoft PP ?                                      
   IUNSCR =        1    unscreen: 0-lin 1-nonlin 2-no                           
   RPACOR =    2.300    partial core radius                                     
   POMASS =  118.710; ZVAL   =   14.000    mass and valenz                      
   RCORE  =    2.500    outmost cutoff radius                                   
   RWIGS  =    2.960; RWIGS  =    1.566    wigner-seitz radius (au A)           
   ENMAX  =  241.083; ENMIN  =  180.812 eV                                      
   ICORE  =        3    local potential                                         
   LCOR   =        T    correct aug charges                                     
   LPAW   =        T    paw PP                                                  
   EAUG   =  439.825                                                            
   DEXC   =    0.000                                                            
   RMAX   =    2.560    core radius for proj-oper                               
   RAUG   =    1.300    factor for augmentation sphere                          
   RDEP   =    2.659    radius for radial grids                                 
   RDEPT  =    2.046    core radius for aug-charge                              
                                                                                
   Atomic configuration                                                         
   12 entries                                                                   
     n  l   j            E        occ.                                          
     1  0  0.50    -29007.2859   2.0000                                         
     2  0  0.50     -4378.8056   2.0000                                         
     2  1  1.50     -3930.4293   6.0000                                         
     3  0  0.50      -845.0264   2.0000                                         
     3  1  1.50      -698.5725   6.0000                                         
     3  2  2.50      -473.2839  10.0000                                         
     4  0  0.50      -133.9036   2.0000                                         
     4  1  1.50       -89.6752   6.0000                                         
     4  2  2.50       -25.8375  10.0000                                         
     5  0  0.50       -10.5484   2.0000                                         
     5  1  0.50        -3.6940   2.0000                                         
     4  3  2.50        -2.7416   0.0000                                         
   Description                                                                  
     l       E           TYP  RCUT    TYP  RCUT                                 
     2    -25.8374624     23  2.500                                             
     2     -5.4423304     23  2.500                                             
     0    -10.5483727     23  2.500                                             
     0     13.6058260     23  2.500                                             
     1     -3.6939829     23  2.500                                             
     1      1.9821976     23  2.500                                             
     3     -1.3605826      7  2.500                                             
  local pseudopotential read in
  partial core-charges read in
  partial kinetic energy density read in
  atomic valenz-charges read in
  non local Contribution for L=           2  read in
    real space projection operators read in
  non local Contribution for L=           2  read in
    real space projection operators read in
  non local Contribution for L=           0  read in
    real space projection operators read in
  non local Contribution for L=           0  read in
    real space projection operators read in
  non local Contribution for L=           1  read in
    real space projection operators read in
  non local Contribution for L=           1  read in
    real space projection operators read in
    PAW grid and wavefunctions read in
 
   number of l-projection  operators is LMAX  =           6
   number of lm-projection operators is LMMAX =          18
 

 ----------------------------------------------------------------------------- 
|                                                                             |
|  ADVICE TO THIS USER RUNNING 'VASP/VAMP'   (HEAR YOUR MASTER'S VOICE ...):  |
|                                                                             |
|      You have a (more or less) 'large supercell' and for larger cells       |
|      it might be more efficient to use real space projection opertators     |
|      So try LREAL= Auto  in the INCAR   file.                               |
|      Mind: At the moment your POTCAR file does not contain real space       |
|       projectors, and has to be modified,  BUT if you                       |
|      want to do an extremely  accurate calculation you might also keep the  |
|      reciprocal projection scheme          (i.e. LREAL=.FALSE.)             |
|                                                                             |
 ----------------------------------------------------------------------------- 

  PAW_PBE O 08Apr2002                   :
 energy of atom  1       EATOM= -432.3788
 kinetic energy error for atom=    0.0258 (will be added to EATOM!!)
  PAW_PBE Sn_d 06Sep2000                :
 energy of atom  2       EATOM=-1893.1092
 kinetic energy error for atom=    0.0038 (will be added to EATOM!!)
 
 
 POSCAR: SnO2                                    
  positions in direct lattice
  velocities in cartesian coordinates
 exchange correlation table for  LEXCH =        8
   RHO(1)=    0.500       N(1)  =     2000
   RHO(2)=  100.500       N(2)  =     4000
 


--------------------------------------------------------------------------------------------------------


 ion  position               nearest neighbor table
   1  0.097  0.903  0.750-  39 2.04  35 2.04  47 2.04
   2  0.403  0.597  0.750-  39 2.04  32 2.04  46 2.04
   3  0.903  0.597  0.750-  33 2.04  37 2.04  42 2.04
   4  0.653  0.153  0.000-  45 2.04  44 2.04  40 2.04
   5  0.847  0.347  0.000-  42 2.04  40 2.04  44 2.04
   6  0.903  0.097  0.250-  44 2.04  35 2.04  47 2.04
   7  0.597  0.403  0.250-  44 2.04  32 2.04  46 2.04
   8  0.653  0.153  0.500-  41 2.04  40 2.04  44 2.04
   9  0.347  0.847  0.500-  41 2.04  39 2.04  43 2.04
  10  0.847  0.347  0.500-  37 2.04  40 2.04  44 2.04
  11  0.597  0.403  0.750-  40 2.04  32 2.04  46 2.04
  12  0.653  0.653  0.000-  46 2.04  36 2.04  33 2.04
  13  0.847  0.847  0.000-  47 2.04  36 2.04  33 2.04
  14  0.903  0.597  0.250-  36 2.04  37 2.04  42 2.04
  15  0.597  0.903  0.250-  36 2.04  41 2.04  45 2.04
  16  0.653  0.653  0.500-  32 2.04  33 2.04  36 2.04
  17  0.847  0.847  0.500-  35 2.04  33 2.04  36 2.04
  18  0.903  0.097  0.750-  40 2.04  35 2.04  47 2.04
  19  0.153  0.653  0.500-  37 2.04  39 2.04  43 2.04
  20  0.597  0.903  0.750-  33 2.04  41 2.04  45 2.04
  21  0.347  0.347  0.500-  32 2.04  34 2.04  38 2.04
  22  0.097  0.903  0.250-  43 2.04  35 2.04  47 2.04
  23  0.403  0.597  0.250-  43 2.04  32 2.04  46 2.04
  24  0.347  0.847  0.000-  45 2.04  43 2.04  39 2.04
  25  0.153  0.153  0.500-  35 2.04  34 2.04  38 2.04
  26  0.153  0.653  0.000-  42 2.04  39 2.04  43 2.04
  27  0.097  0.403  0.250-  34 2.04  37 2.04  42 2.04
  28  0.403  0.097  0.750-  38 2.04  41 2.04  45 2.04
  29  0.097  0.403  0.750-  38 2.04  37 2.04  42 2.04
  30  0.347  0.347  0.000-  46 2.04  38 2.04  34 2.04
  31  0.403  0.097  0.250-  34 2.04  41 2.04  45 2.04
  32  0.500  0.500  0.500-  16 2.04  21 2.04  11 2.04   2 2.04   7 2.04  23 2.04  46 3.15  46 3.15
                            36 3.69  38 3.69  39 3.69  40 3.69  43 3.69  44 3.69  33 3.69  34 3.69
  33  0.750  0.750  0.750-   3 2.04  20 2.04  13 2.04  16 2.04  17 2.04  12 2.04  36 3.15  36 3.15
                            32 3.69  37 3.69  41 3.69  42 3.69  45 3.69  46 3.69  47 3.69  35 3.69
  34  0.250  0.250  0.250-  27 2.04  31 2.04  21 2.04  30 2.04  25 2.04  38 3.15  38 3.15  37 3.69
                            32 3.69  41 3.69  42 3.69  45 3.69  46 3.69  47 3.69  35 3.69
  35  0.000  0.000  0.500-  17 2.04  25 2.04   1 2.04  18 2.04  22 2.04   6 2.04  47 3.15  47 3.15
                            36 3.69  38 3.69  39 3.69  40 3.69  43 3.69  44 3.69  33 3.69  34 3.69
  36  0.750  0.750  0.250-  14 2.04  15 2.04  12 2.04  13 2.04  16 2.04  17 2.04  33 3.15  33 3.15
                            35 3.69  37 3.69  41 3.69  42 3.69  45 3.69  46 3.69  47 3.69  32 3.69
  37  0.000  0.500  0.500-  10 2.04  19 2.04  14 2.04   3 2.04  27 2.04  29 2.04  42 3.15  42 3.15
                            36 3.69  38 3.69  39 3.69  40 3.69  33 3.69  43 3.69  44 3.69  34 3.69
  38  0.250  0.250  0.750-  28 2.04  29 2.04  21 2.04  25 2.04  30 2.04  34 3.15  34 3.15  35 3.69
                            37 3.69  41 3.69  42 3.69  45 3.69  46 3.69  47 3.69  32 3.69
  39  0.250  0.750  0.750-   1 2.04   2 2.04   9 2.04  19 2.04  24 2.04  26 2.04  43 3.15  43 3.15
                            37 3.69  41 3.69  42 3.69  32 3.69  45 3.69  46 3.69  47 3.69  35 3.69
  40  0.750  0.250  0.750-  11 2.04  18 2.04   8 2.04  10 2.04   4 2.04   5 2.04  44 3.15  44 3.15
                            37 3.69  41 3.69  42 3.69  32 3.69  45 3.69  46 3.69  47 3.69  35 3.69
  41  0.500  0.000  0.500-   8 2.04   9 2.04  15 2.04  20 2.04  28 2.04  31 2.04  45 3.15  45 3.15
                            36 3.69  38 3.69  39 3.69  40 3.69  43 3.69  44 3.69  33 3.69  34 3.69
  42  0.000  0.500  0.000-   5 2.04  26 2.04  14 2.04   3 2.04  27 2.04  29 2.04  37 3.15  37 3.15
                            36 3.69  33 3.69  38 3.69  39 3.69  40 3.69  43 3.69  44 3.69  34 3.69
  43  0.250  0.750  0.250-  22 2.04  23 2.04   9 2.04  19 2.04  24 2.04  26 2.04  39 3.15  39 3.15
                            37 3.69  32 3.69  41 3.69  42 3.69  45 3.69  46 3.69  47 3.69  35 3.69
  44  0.750  0.250  0.250-   6 2.04   7 2.04   4 2.04   5 2.04   8 2.04  10 2.04  40 3.15  40 3.15
                            37 3.69  32 3.69  41 3.69  42 3.69  45 3.69  46 3.69  47 3.69  35 3.69
  45  0.500  0.000  0.000-   4 2.04  24 2.04  20 2.04  15 2.04  28 2.04  31 2.04  41 3.15  41 3.15
                            36 3.69  38 3.69  39 3.69  40 3.69  33 3.69  43 3.69  44 3.69  34 3.69
  46  0.500  0.500  0.000-  12 2.04  30 2.04  11 2.04   2 2.04  23 2.04   7 2.04  32 3.15  32 3.15
                            34 3.69  36 3.69  38 3.69  39 3.69  40 3.69  43 3.69  44 3.69  33 3.69
  47  0.000  0.000  0.000-  13 2.04   6 2.04   1 2.04  18 2.04  22 2.04  35 3.15  35 3.15  33 3.69
                            36 3.69  38 3.69  39 3.69  40 3.69  43 3.69  44 3.69  34 3.69
 
  LATTYP: Found a simple tetragonal cell.
 ALAT       =     9.4320271667
 C/A-ratio  =     0.6685526591
  
  Lattice vectors:
  
 A1 = (   9.4320271667,   0.0000000000,   0.0000000000)
 A2 = (   0.0000000000,   9.4320271667,   0.0000000000)
 A3 = (   0.0000000000,   0.0000000000,   6.3058068432)


Analysis of symmetry for initial positions (statically):
=====================================================================
 Subroutine PRICEL returns:
 Original cell was already a primitive cell.
 

 Routine SETGRP: Setting up the symmetry group for a 
 simple tetragonal supercell.


 Subroutine GETGRP returns: Found  4 space group operations
 (whereof  4 operations were pure point group operations)
 out of a pool of 16 trial point group operations.


The static configuration has the point symmetry C_2v.


Analysis of symmetry for dynamics (positions and initial velocities):
=====================================================================
 Subroutine PRICEL returns:
 Original cell was already a primitive cell.
 

 Routine SETGRP: Setting up the symmetry group for a 
 simple tetragonal supercell.


 Subroutine GETGRP returns: Found  4 space group operations
 (whereof  4 operations were pure point group operations)
 out of a pool of 16 trial point group operations.


The dynamic configuration has the point symmetry C_2v.


Analysis of constrained symmetry for selective dynamics:
=====================================================================
 Subroutine PRICEL returns:
 Original cell was already a primitive cell.
 

 Routine SETGRP: Setting up the symmetry group for a 
 simple tetragonal supercell.


 Subroutine GETGRP returns: Found  4 space group operations
 (whereof  4 operations were pure point group operations)
 out of a pool of 16 trial point group operations.


The constrained configuration has the point symmetry C_2v.


 Subroutine INISYM returns: Found  4 space group operations
 (whereof  4 operations are pure point group operations),
 and found     1 'primitive' translations

 
 
 KPOINTS: Automatic mesh                          

Automatic generation of k-mesh.
Space group operators:
 irot       det(A)        alpha          n_x          n_y          n_z        tau_x        tau_y        tau_z
    1     1.000000     0.000000     1.000000     0.000000     0.000000     0.000000     0.000000     0.000000
    2    -1.000000   180.000000     0.000000     0.000000     1.000000     0.000000     0.000000     0.000000
    3     1.000000   180.000000     0.707107     0.707107     0.000000     0.000000     0.000000     0.000000
    4    -1.000000   180.000000     0.707107    -0.707107     0.000000     0.000000     0.000000     0.000000
 
 Subroutine IBZKPT returns following result:
 ===========================================
 
 Found      8 irreducible k-points:
 
 Following reciprocal coordinates:
            Coordinates               Weight
  0.000000  0.000000  0.125000      2.000000
  0.333333  0.000000  0.125000      8.000000
  0.333333  0.333333  0.125000      4.000000
 -0.333333  0.333333  0.125000      4.000000
  0.000000  0.000000  0.375000      2.000000
  0.333333  0.000000  0.375000      8.000000
  0.333333  0.333333  0.375000      4.000000
 -0.333333  0.333333  0.375000      4.000000
 
 Following cartesian coordinates:
            Coordinates               Weight
  0.000000  0.000000  0.019823      2.000000
  0.035341  0.000000  0.019823      8.000000
  0.035341  0.035341  0.019823      4.000000
 -0.035341  0.035341  0.019823      4.000000
  0.000000  0.000000  0.059469      2.000000
  0.035341  0.000000  0.059469      8.000000
  0.035341  0.035341  0.059469      4.000000
 -0.035341  0.035341  0.059469      4.000000
 


--------------------------------------------------------------------------------------------------------




 Dimension of arrays:
   k-points           NKPTS =      8   k-points in BZ     NKDIM =      8   number of bands    NBANDS=    248
   number of dos      NEDOS =    301   number of ions     NIONS =     47
   non local maximal  LDIM  =      6   non local SUM 2l+1 LMDIM =     18
   total plane-waves  NPLWV = 104976
   max r-space proj   IRMAX =      1   max aug-charges    IRDMAX=   8555
   dimension x,y,z NGX =    54 NGY =   54 NGZ =   36
   dimension x,y,z NGXF=   108 NGYF=  108 NGZF=   72
   support grid    NGXF=   108 NGYF=  108 NGZF=   72
   ions per type =              31  16
 NGX,Y,Z   is equivalent  to a cutoff of   9.52,  9.52,  9.49 a.u.
 NGXF,Y,Z  is equivalent  to a cutoff of  19.04, 19.04, 18.98 a.u.


 I would recommend the setting:
   dimension x,y,z NGX =    51 NGY =   51 NGZ =   34
 SYSTEM =  SnO2                                    
 POSCAR =  SnO2                                    

 Startparameter for this run:
   NWRITE =      2    write-flag & timer
   PREC   = normal    normal or accurate (medium, high low for compatibility)
   ISTART =      0    job   : 0-new  1-cont  2-samecut
   ICHARG =      2    charge: 1-file 2-atom 10-const
   ISPIN  =      1    spin polarized calculation?
   LNONCOLLINEAR =      F non collinear calculations
   LSORBIT =      F    spin-orbit coupling
   INIWAV =      1    electr: 0-lowe 1-rand  2-diag
   LASPH  =      F    aspherical Exc in radial PAW
   METAGGA=      F    non-selfconsistent MetaGGA calc.

 Electronic Relaxation 1
   ENCUT  =  480.0 eV  35.28 Ry    5.94 a.u.  16.85 16.85 11.26*2*pi/ulx,y,z
   ENINI  =  480.0     initial cutoff
   ENAUG  =  605.4 eV  augmentation charge cutoff
   NELM   =     60;   NELMIN=  2; NELMDL= -5     # of ELM steps 
   EDIFF  = 0.1E-03   stopping-criterion for ELM
   LREAL  =      F    real-space projection
   NLSPLINE    = F    spline interpolate recip. space projectors
   LCOMPAT=      F    compatible to vasp.4.4
   GGA_COMPAT  = T    GGA compatible to vasp.4.4-vasp.4.6
   LMAXPAW     = -100 max onsite density
   LMAXMIX     =    4 max onsite mixed and CHGCAR
   VOSKOWN=      0    Vosko Wilk Nusair interpolation
   ROPT   =    0.00000   0.00000
 Ionic relaxation
   EDIFFG = -.5E-01   stopping-criterion for IOM
   NSW    =    100    number of steps for IOM
   NBLOCK =      1;   KBLOCK =    100    inner block; outer block 
   IBRION =      2    ionic relax: 0-MD 1-quasi-New 2-CG
   NFREE  =      1    steps in history (QN), initial steepest desc. (CG)
   ISIF   =      2    stress and relaxation
   IWAVPR =     11    prediction:  0-non 1-charg 2-wave 3-comb
   ISYM   =      2    0-nonsym 1-usesym 2-fastsym
   LCORR  =      T    Harris-Foulkes like correction to forces

   POTIM  = 0.5000    time-step for ionic-motion
   TEIN   =    0.0    initial temperature
   TEBEG  =    0.0;   TEEND  =   0.0 temperature during run
   SMASS  =  -3.00    Nose mass-parameter (am)
   estimated Nose-frequenzy (Omega)   =  0.10E-29 period in steps =****** mass=  -0.203E-26a.u.
   SCALEE = 1.0000    scale energy and forces
   NPACO  =    256;   APACO  = 16.0  distance and # of slots for P.C.
   PSTRESS=    0.0 pullay stress

  Mass of Ions in am
   POMASS =  16.00118.71
  Ionic Valenz
   ZVAL   =   6.00 14.00
  Atomic Wigner-Seitz radii
   RWIGS  =  -1.00 -1.00
  virtual crystal weights 
   VCA    =   1.00  1.00
   NELECT =     410.0000    total number of electrons
   NUPDOWN=      -1.0000    fix difference up-down

 DOS related values:
   EMIN   =  10.00;   EMAX   =-10.00  energy-range for DOS
   EFERMI =   0.00
   ISMEAR =     0;   SIGMA  =   0.10  broadening in eV -4-tet -1-fermi 0-gaus

 Electronic relaxation 2 (details)
   IALGO  =     48    algorithm
   LDIAG  =      T    sub-space diagonalisation (order eigenvalues)
   LSUBROT=      F    optimize rotation matrix (better conditioning)
   TURBO    =      0    0=normal 1=particle mesh
   IRESTART =      0    0=no restart 2=restart with 2 vectors
   NREBOOT  =      0    no. of reboots
   NMIN     =      0    reboot dimension
   EREF     =   0.00    reference energy to select bands
   IMIX   =      4    mixing-type and parameters
     AMIX     =   0.40;   BMIX     =  1.00
     AMIX_MAG =   1.60;   BMIX_MAG =  1.00
     AMIN     =   0.10
     WC   =   100.;   INIMIX=   1;  MIXPRE=   1;  MAXMIX= -45

 Intra band minimization:
   WEIMIN = 0.0010     energy-eigenvalue tresh-hold
   EBREAK =  0.10E-06  absolut break condition
   DEPER  =   0.30     relativ break condition  

   TIME   =   0.40     timestep for ELM

  volume/ion in A,a.u.               =      11.94        80.55
  Fermi-wavevector in a.u.,A,eV,Ry     =   1.474640  2.786665 29.586708  2.174562
  Thomas-Fermi vector in A             =   2.589386
 
 Write flags
   LWAVE  =      T    write WAVECAR
   LCHARG =      T    write CHGCAR
   LVTOT  =      F    write LOCPOT, total local potential
   LVHAR  =      F    write LOCPOT, Hartree potential only
   LELF   =      F    write electronic localiz. function (ELF)
   LORBIT =      0    0 simple, 1 ext, 2 COOP (PROOUT)


 Dipole corrections
   LMONO  =      F    monopole corrections only (constant potential shift)
   LDIPOL =      F    correct potential (dipole corrections)
   IDIPOL =      0    1-x, 2-y, 3-z, 4-all directions 
   EPSILON=  1.0000000 bulk dielectric constant

 LDA+U is selected, type is set to LDAUTYPE =  2
   angular momentum for each species LDAUL =    -1    2
   U (eV)           for each species LDAUU =   0.0  4.0
   J (eV)           for each species LDAUJ =   0.0  0.0
 Exchange correlation treatment:
   GGA     =    --    GGA type
   LEXCH   =     8    internal setting for exchange type
   VOSKOWN=      0    Vosko Wilk Nusair interpolation
   LHFCALC =     F    Hartree Fock is set to
   LHFONE  =     F    Hartree Fock one center treatment
   AEXX    =    0.0000 exact exchange contribution

 Linear response parameters
   LEPSILON=     F    determine dielectric tensor
   LRPA    =     F    only Hartree local field effects (RPA)
   LNABLA  =     F    use nabla operator in PAW spheres
   LVEL    =     F    velocity operator in full k-point grid
   LINTERFAST=   F  fast interpolation
   KINTER  =     0    interpolate to denser k-point grid
   CSHIFT  =0.1000    complex shift for real part using Kramers Kronig
   OMEGAMAX=  -1.0    maximum frequency
   DEG_THRESHOLD= 0.2000000E-02 threshold for treating states as degnerate
   RTIME   =    0.100 relaxation time in fs

 Orbital magnetization related:
   ORBITALMAG=     F  switch on orbital magnetization
   LCHIMAG   =     F  perturbation theory with respect to B field
   DQ        =  0.001000  dq finite difference perturbation B field



--------------------------------------------------------------------------------------------------------


 conjugate gradient relaxation of ions
   using selective dynamics as specified on POSCAR
 charge density and potential will be updated during run
 non-spin polarized calculation
 RMM-DIIS sequential band-by-band
 perform sub-space diagonalisation
    before iterative eigenvector-optimisation
 modified Broyden-mixing scheme, WC =      100.0
 initial mixing is a Kerker type mixing with AMIX =  0.4000 and BMIX =      1.0000
 Hartree-type preconditioning will be used
 using additional bands           43
 reciprocal scheme for non local part
 use partial core corrections
 calculate Harris-corrections to forces 
   (improved forces if not selfconsistent)
 use gradient corrections 
 use of overlap-Matrix (Vanderbilt PP)
 Gauss-broadening in eV      SIGMA  =   0.10


--------------------------------------------------------------------------------------------------------


  energy-cutoff  :      480.00
  volume of cell :      560.98
      direct lattice vectors                 reciprocal lattice vectors
     9.432027167  0.000000000  0.000000000     0.106021747  0.000000000  0.000000000
     0.000000000  9.432027167  0.000000000     0.000000000  0.106021747  0.000000000
     0.000000000  0.000000000  6.305806843     0.000000000  0.000000000  0.158583989

  length of vectors
     9.432027167  9.432027167  6.305806843     0.106021747  0.106021747  0.158583989


 
 k-points in units of 2pi/SCALE and weight: Automatic mesh                          
   0.00000000  0.00000000  0.01982300       0.056
   0.03534058  0.00000000  0.01982300       0.222
   0.03534058  0.03534058  0.01982300       0.111
  -0.03534058  0.03534058  0.01982300       0.111
   0.00000000  0.00000000  0.05946900       0.056
   0.03534058  0.00000000  0.05946900       0.222
   0.03534058  0.03534058  0.05946900       0.111
  -0.03534058  0.03534058  0.05946900       0.111
 
 k-points in reciprocal lattice and weights: Automatic mesh                          
   0.00000000  0.00000000  0.12500000       0.056
   0.33333333  0.00000000  0.12500000       0.222
   0.33333333  0.33333333  0.12500000       0.111
  -0.33333333  0.33333333  0.12500000       0.111
   0.00000000  0.00000000  0.37500000       0.056
   0.33333333  0.00000000  0.37500000       0.222
   0.33333333  0.33333333  0.37500000       0.111
  -0.33333333  0.33333333  0.37500000       0.111
 
 position of ions in fractional coordinates (direct lattice) 
   0.09707491  0.90292509  0.75000000
   0.40292509  0.59707491  0.75000000
   0.90292509  0.59707491  0.75000000
   0.65292509  0.15292509  0.00000000
   0.84707491  0.34707491  0.00000000
   0.90292509  0.09707491  0.25000000
   0.59707491  0.40292509  0.25000000
   0.65292509  0.15292509  0.50000000
   0.34707491  0.84707491  0.50000000
   0.84707491  0.34707491  0.50000000
   0.59707491  0.40292509  0.75000000
   0.65292509  0.65292509  0.00000000
   0.84707491  0.84707491  0.00000000
   0.90292509  0.59707491  0.25000000
   0.59707491  0.90292509  0.25000000
   0.65292509  0.65292509  0.50000000
   0.84707491  0.84707491  0.50000000
   0.90292509  0.09707491  0.75000000
   0.15292509  0.65292509  0.50000000
   0.59707491  0.90292509  0.75000000
   0.34707491  0.34707491  0.50000000
   0.09707491  0.90292509  0.25000000
   0.40292509  0.59707491  0.25000000
   0.34707491  0.84707491  0.00000000
   0.15292509  0.15292509  0.50000000
   0.15292509  0.65292509  0.00000000
   0.09707491  0.40292509  0.25000000
   0.40292509  0.09707491  0.75000000
   0.09707491  0.40292509  0.75000000
   0.34707491  0.34707491  0.00000000
   0.40292509  0.09707491  0.25000000
   0.50000000  0.50000000  0.50000000
   0.75000000  0.75000000  0.75000000
   0.25000000  0.25000000  0.25000000
   0.00000000  0.00000000  0.50000000
   0.75000000  0.75000000  0.25000000
   0.00000000  0.50000000  0.50000000
   0.25000000  0.25000000  0.75000000
   0.25000000  0.75000000  0.75000000
   0.75000000  0.25000000  0.75000000
   0.50000000  0.00000000  0.50000000
   0.00000000  0.50000000  0.00000000
   0.25000000  0.75000000  0.25000000
   0.75000000  0.25000000  0.25000000
   0.50000000  0.00000000  0.00000000
   0.50000000  0.50000000  0.00000000
   0.00000000  0.00000000  0.00000000
 
 position of ions in cartesian coordinates  (Angst):
   0.91561321  8.51641396  4.72935513
   3.80040037  5.63162680  4.72935513
   8.51641396  5.63162680  4.72935513
   6.15840716  1.44239358  0.00000000
   7.98963359  3.27362000  0.00000000
   8.51641396  0.91561321  1.57645171
   5.63162680  3.80040037  1.57645171
   6.15840716  1.44239358  3.15290342
   3.27362000  7.98963359  3.15290342
   7.98963359  3.27362000  3.15290342
   5.63162680  3.80040037  4.72935513
   6.15840716  6.15840716  0.00000000
   7.98963359  7.98963359  0.00000000
   8.51641396  5.63162680  1.57645171
   5.63162680  8.51641396  1.57645171
   6.15840716  6.15840716  3.15290342
   7.98963359  7.98963359  3.15290342
   8.51641396  0.91561321  4.72935513
   1.44239358  6.15840716  3.15290342
   5.63162680  8.51641396  4.72935513
   3.27362000  3.27362000  3.15290342
   0.91561321  8.51641396  1.57645171
   3.80040037  5.63162680  1.57645171
   3.27362000  7.98963359  0.00000000
   1.44239358  1.44239358  3.15290342
   1.44239358  6.15840716  0.00000000
   0.91561321  3.80040037  1.57645171
   3.80040037  0.91561321  4.72935513
   0.91561321  3.80040037  4.72935513
   3.27362000  3.27362000  0.00000000
   3.80040037  0.91561321  1.57645171
   4.71601358  4.71601358  3.15290342
   7.07402038  7.07402038  4.72935513
   2.35800679  2.35800679  1.57645171
   0.00000000  0.00000000  3.15290342
   7.07402038  7.07402038  1.57645171
   0.00000000  4.71601358  3.15290342
   2.35800679  2.35800679  4.72935513
   2.35800679  7.07402038  4.72935513
   7.07402038  2.35800679  4.72935513
   4.71601358  0.00000000  3.15290342
   0.00000000  4.71601358  0.00000000
   2.35800679  7.07402038  1.57645171
   7.07402038  2.35800679  1.57645171
   4.71601358  0.00000000  0.00000000
   4.71601358  4.71601358  0.00000000
   0.00000000  0.00000000  0.00000000
 


--------------------------------------------------------------------------------------------------------


 k-point  1 :   0.0000 0.0000 0.1250  plane waves:   13447
 k-point  2 :   0.3333 0.0000 0.1250  plane waves:   13402
 k-point  3 :   0.3333 0.3333 0.1250  plane waves:   13398
 k-point  4 :  -0.3333 0.3333 0.1250  plane waves:   13398
 k-point  5 :   0.0000 0.0000 0.3750  plane waves:   13390
 k-point  6 :   0.3333 0.0000 0.3750  plane waves:   13392
 k-point  7 :   0.3333 0.3333 0.3750  plane waves:   13396
 k-point  8 :  -0.3333 0.3333 0.3750  plane waves:   13396

 maximum and minimum number of plane-waves per node :      1695     1657

 maximum number of plane-waves:     13447
 maximum index in each direction: 
   IXMAX=   17   IYMAX=   16   IZMAX=   11
   IXMIN=  -17   IYMIN=  -17   IZMIN=  -11

 WARNING: aliasing errors must be expected set NGX to  70 to avoid them
 WARNING: aliasing errors must be expected set NGY to  68 to avoid them
 WARNING: aliasing errors must be expected set NGZ to  46 to avoid them
 aliasing errors are usually negligible using standard VASP settings
 and one can safely disregard these warnings

 parallel 3D FFT for wavefunctions:
    minimum data exchange during FFTs selected (reduces bandwidth)
 parallel 3D FFT for charge:
    minimum data exchange during FFTs selected (reduces bandwidth)


 total amount of memory used by VASP on root node    53050. kBytes
========================================================================

   base      :      30000. kBytes
   nonl-proj :       5182. kBytes
   fftplans  :       1450. kBytes
   grid      :       2326. kBytes
   one-center:         93. kBytes
   wavefun   :      13999. kBytes
 
     INWAV:  cpu time    0.0000: real time    0.0004
 Broyden mixing: mesh for mixing (old mesh)
   NGX = 33   NGY = 33   NGZ = 23
  (NGX  =108   NGY  =108   NGZ  = 72)
  gives a total of  25047 points

 initial charge density was supplied:
 charge density of overlapping atoms calculated
 number of electron     410.0000000 magnetization 
 keeping initial charge density in first step


--------------------------------------------------------------------------------------------------------


 Maximum index for augmentation-charges          526 (set IRDMAX)


--------------------------------------------------------------------------------------------------------


 First call to EWALD:  gamma=   0.215
 Maximum number of real-space cells 2x 2x 3
 Maximum number of reciprocal cells 3x 3x 2

 FEWALD executed in parallel
    FEWALD:  cpu time    0.1020: real time    0.1027


----------------------------------------- Iteration    1(   1)  ---------------------------------------


    POTLOK:  cpu time    0.3349: real time    0.6506
    SETDIJ:  cpu time    0.1590: real time    0.1592
atom =  32  type =  2  l = 2
 
 onsite density matrix
 
spin component  1
 
  0.9926  0.0000  0.0000  0.0000  0.0000
  0.0000  0.9926  0.0000  0.0000  0.0000
  0.0000  0.0000  0.9926  0.0000  0.0000
  0.0000  0.0000  0.0000  0.9926  0.0000
  0.0000  0.0000  0.0000  0.0000  0.9926
 
spin component  2
 
  0.9926  0.0000  0.0000  0.0000  0.0000
  0.0000  0.9926  0.0000  0.0000  0.0000
  0.0000  0.0000  0.9926  0.0000  0.0000
  0.0000  0.0000  0.0000  0.9926  0.0000
  0.0000  0.0000  0.0000  0.0000  0.9926
 
 occupancies and eigenvectors
 
  o =  0.9926  v =  1.0000  0.0000  0.0000  0.0000  0.0000  0.0000  0.0000  0.0000  0.0000  0.0000      0.0000  0.0000  0.0000  0.0000  0.0000  0.0000  0.0000  0.0000  0.0000  0.0000
  o =  0.9926  v =  0.0000  1.0000  0.0000  0.0000  0.0000  0.0000  0.0000  0.0000  0.0000  0.0000      0.0000  0.0000  0.0000  0.0000  0.0000  0.0000  0.0000  0.0000  0.0000  0.0000
  o =  0.9926  v =  0.0000  0.0000  1.0000  0.0000  0.0000  0.0000  0.0000  0.0000  0.0000  0.0000      0.0000  0.0000  0.0000  0.0000  0.0000  0.0000  0.0000  0.0000  0.0000  0.0000
  o =  0.9926  v =  0.0000  0.0000  0.0000  1.0000  0.0000  0.0000  0.0000  0.0000  0.0000  0.0000      0.0000  0.0000  0.0000  0.0000  0.0000  0.0000  0.0000  0.0000  0.0000  0.0000
  o =  0.9926  v =  0.0000  0.0000  0.0000  0.0000  1.0000  0.0000  0.0000  0.0000  0.0000  0.0000      0.0000  0.0000  0.0000  0.0000  0.0000  0.0000  0.0000  0.0000  0.0000  0.0000
  o =  0.9926  v =  0.0000  0.0000  0.0000  0.0000  0.0000  1.0000  0.0000  0.0000  0.0000  0.0000      0.0000  0.0000  0.0000  0.0000  0.0000  0.0000  0.0000  0.0000  0.0000  0.0000
  o =  0.9926  v =  0.0000  0.0000  0.0000  0.0000  0.0000  0.0000  1.0000  0.0000  0.0000  0.0000      0.0000  0.0000  0.0000  0.0000  0.0000  0.0000  0.0000  0.0000  0.0000  0.0000
  o =  0.9926  v =  0.0000  0.0000  0.0000  0.0000  0.0000  0.0000  0.0000  1.0000  0.0000  0.0000      0.0000  0.0000  0.0000  0.0000  0.0000  0.0000  0.0000  0.0000  0.0000  0.0000
  o =  0.9926  v =  0.0000  0.0000  0.0000  0.0000  0.0000  0.0000  0.0000  0.0000  1.0000  0.0000      0.0000  0.0000  0.0000  0.0000  0.0000  0.0000  0.0000  0.0000  0.0000  0.0000
  o =  0.9926  v =  0.0000  0.0000  0.0000  0.0000  0.0000  0.0000  0.0000  0.0000  0.0000  1.0000      0.0000  0.0000  0.0000  0.0000  0.0000  0.0000  0.0000  0.0000  0.0000  0.0000
atom =  33  type =  2  l = 2
 
 onsite density matrix
 
spin component  1
 
  0.9926  0.0000  0.0000  0.0000  0.0000
  0.0000  0.9926  0.0000  0.0000  0.0000
  0.0000  0.0000  0.9926  0.0000  0.0000
  0.0000  0.0000  0.0000  0.9926  0.0000
  0.0000  0.0000  0.0000  0.0000  0.9926
 
spin component  2
 
  0.9926  0.0000  0.0000  0.0000  0.0000
  0.0000  0.9926  0.0000  0.0000  0.0000
  0.0000  0.0000  0.9926  0.0000  0.0000
  0.0000  0.0000  0.0000  0.9926  0.0000
  0.0000  0.0000  0.0000  0.0000  0.9926
 
 occupancies and eigenvectors
 
  o =  0.9926  v =  1.0000  0.0000  0.0000  0.0000  0.0000  0.0000  0.0000  0.0000  0.0000  0.0000      0.0000  0.0000  0.0000  0.0000  0.0000  0.0000  0.0000  0.0000  0.0000  0.0000
  o =  0.9926  v =  0.0000  1.0000  0.0000  0.0000  0.0000  0.0000  0.0000  0.0000  0.0000  0.0000      0.0000  0.0000  0.0000  0.0000  0.0000  0.0000  0.0000  0.0000  0.0000  0.0000
  o =  0.9926  v =  0.0000  0.0000  1.0000  0.0000  0.0000  0.0000  0.0000  0.0000  0.0000  0.0000      0.0000  0.0000  0.0000  0.0000  0.0000  0.0000  0.0000  0.0000  0.0000  0.0000
  o =  0.9926  v =  0.0000  0.0000  0.0000  1.0000  0.0000  0.0000  0.0000  0.0000  0.0000  0.0000      0.0000  0.0000  0.0000  0.0000  0.0000  0.0000  0.0000  0.0000  0.0000  0.0000
  o =  0.9926  v =  0.0000  0.0000  0.0000  0.0000  1.0000  0.0000  0.0000  0.0000  0.0000  0.0000      0.0000  0.0000  0.0000  0.0000  0.0000  0.0000  0.0000  0.0000  0.0000  0.0000
  o =  0.9926  v =  0.0000  0.0000  0.0000  0.0000  0.0000  1.0000  0.0000  0.0000  0.0000  0.0000      0.0000  0.0000  0.0000  0.0000  0.0000  0.0000  0.0000  0.0000  0.0000  0.0000
  o =  0.9926  v =  0.0000  0.0000  0.0000  0.0000  0.0000  0.0000  1.0000  0.0000  0.0000  0.0000      0.0000  0.0000  0.0000  0.0000  0.0000  0.0000  0.0000  0.0000  0.0000  0.0000
  o =  0.9926  v =  0.0000  0.0000  0.0000  0.0000  0.0000  0.0000  0.0000  1.0000  0.0000  0.0000      0.0000  0.0000  0.0000  0.0000  0.0000  0.0000  0.0000  0.0000  0.0000  0.0000
  o =  0.9926  v =  0.0000  0.0000  0.0000  0.0000  0.0000  0.0000  0.0000  0.0000  1.0000  0.0000      0.0000  0.0000  0.0000  0.0000  0.0000  0.0000  0.0000  0.0000  0.0000  0.0000
  o =  0.9926  v =  0.0000  0.0000  0.0000  0.0000  0.0000  0.0000  0.0000  0.0000  0.0000  1.0000      0.0000  0.0000  0.0000  0.0000  0.0000  0.0000  0.0000  0.0000  0.0000  0.0000
atom =  34  type =  2  l = 2
 
 onsite density matrix
 
spin component  1
 
  0.9926  0.0000  0.0000  0.0000  0.0000
  0.0000  0.9926  0.0000  0.0000  0.0000
  0.0000  0.0000  0.9926  0.0000  0.0000
  0.0000  0.0000  0.0000  0.9926  0.0000
  0.0000  0.0000  0.0000  0.0000  0.9926
 
spin component  2
 
  0.9926  0.0000  0.0000  0.0000  0.0000
  0.0000  0.9926  0.0000  0.0000  0.0000
  0.0000  0.0000  0.9926  0.0000  0.0000
  0.0000  0.0000  0.0000  0.9926  0.0000
  0.0000  0.0000  0.0000  0.0000  0.9926
 
 occupancies and eigenvectors
 
  o =  0.9926  v =  1.0000  0.0000  0.0000  0.0000  0.0000  0.0000  0.0000  0.0000  0.0000  0.0000      0.0000  0.0000  0.0000  0.0000  0.0000  0.0000  0.0000  0.0000  0.0000  0.0000
  o =  0.9926  v =  0.0000  1.0000  0.0000  0.0000  0.0000  0.0000  0.0000  0.0000  0.0000  0.0000      0.0000  0.0000  0.0000  0.0000  0.0000  0.0000  0.0000  0.0000  0.0000  0.0000
  o =  0.9926  v =  0.0000  0.0000  1.0000  0.0000  0.0000  0.0000  0.0000  0.0000  0.0000  0.0000      0.0000  0.0000  0.0000  0.0000  0.0000  0.0000  0.0000  0.0000  0.0000  0.0000
  o =  0.9926  v =  0.0000  0.0000  0.0000  1.0000  0.0000  0.0000  0.0000  0.0000  0.0000  0.0000      0.0000  0.0000  0.0000  0.0000  0.0000  0.0000  0.0000  0.0000  0.0000  0.0000
  o =  0.9926  v =  0.0000  0.0000  0.0000  0.0000  1.0000  0.0000  0.0000  0.0000  0.0000  0.0000      0.0000  0.0000  0.0000  0.0000  0.0000  0.0000  0.0000  0.0000  0.0000  0.0000
  o =  0.9926  v =  0.0000  0.0000  0.0000  0.0000  0.0000  1.0000  0.0000  0.0000  0.0000  0.0000      0.0000  0.0000  0.0000  0.0000  0.0000  0.0000  0.0000  0.0000  0.0000  0.0000
  o =  0.9926  v =  0.0000  0.0000  0.0000  0.0000  0.0000  0.0000  1.0000  0.0000  0.0000  0.0000      0.0000  0.0000  0.0000  0.0000  0.0000  0.0000  0.0000  0.0000  0.0000  0.0000
  o =  0.9926  v =  0.0000  0.0000  0.0000  0.0000  0.0000  0.0000  0.0000  1.0000  0.0000  0.0000      0.0000  0.0000  0.0000  0.0000  0.0000  0.0000  0.0000  0.0000  0.0000  0.0000
  o =  0.9926  v =  0.0000  0.0000  0.0000  0.0000  0.0000  0.0000  0.0000  0.0000  1.0000  0.0000      0.0000  0.0000  0.0000  0.0000  0.0000  0.0000  0.0000  0.0000  0.0000  0.0000
  o =  0.9926  v =  0.0000  0.0000  0.0000  0.0000  0.0000  0.0000  0.0000  0.0000  0.0000  1.0000      0.0000  0.0000  0.0000  0.0000  0.0000  0.0000  0.0000  0.0000  0.0000  0.0000
atom =  35  type =  2  l = 2
 
 onsite density matrix
 
spin component  1
 
  0.9926  0.0000  0.0000  0.0000  0.0000
  0.0000  0.9926  0.0000  0.0000  0.0000
  0.0000  0.0000  0.9926  0.0000  0.0000
  0.0000  0.0000  0.0000  0.9926  0.0000
  0.0000  0.0000  0.0000  0.0000  0.9926
 
spin component  2
 
  0.9926  0.0000  0.0000  0.0000  0.0000
  0.0000  0.9926  0.0000  0.0000  0.0000
  0.0000  0.0000  0.9926  0.0000  0.0000
  0.0000  0.0000  0.0000  0.9926  0.0000
  0.0000  0.0000  0.0000  0.0000  0.9926
 
 occupancies and eigenvectors
 
  o =  0.9926  v =  1.0000  0.0000  0.0000  0.0000  0.0000  0.0000  0.0000  0.0000  0.0000  0.0000      0.0000  0.0000  0.0000  0.0000  0.0000  0.0000  0.0000  0.0000  0.0000  0.0000
  o =  0.9926  v =  0.0000  1.0000  0.0000  0.0000  0.0000  0.0000  0.0000  0.0000  0.0000  0.0000      0.0000  0.0000  0.0000  0.0000  0.0000  0.0000  0.0000  0.0000  0.0000  0.0000
  o =  0.9926  v =  0.0000  0.0000  1.0000  0.0000  0.0000  0.0000  0.0000  0.0000  0.0000  0.0000      0.0000  0.0000  0.0000  0.0000  0.0000  0.0000  0.0000  0.0000  0.0000  0.0000
  o =  0.9926  v =  0.0000  0.0000  0.0000  1.0000  0.0000  0.0000  0.0000  0.0000  0.0000  0.0000      0.0000  0.0000  0.0000  0.0000  0.0000  0.0000  0.0000  0.0000  0.0000  0.0000
  o =  0.9926  v =  0.0000  0.0000  0.0000  0.0000  1.0000  0.0000  0.0000  0.0000  0.0000  0.0000      0.0000  0.0000  0.0000  0.0000  0.0000  0.0000  0.0000  0.0000  0.0000  0.0000
  o =  0.9926  v =  0.0000  0.0000  0.0000  0.0000  0.0000  1.0000  0.0000  0.0000  0.0000  0.0000      0.0000  0.0000  0.0000  0.0000  0.0000  0.0000  0.0000  0.0000  0.0000  0.0000
  o =  0.9926  v =  0.0000  0.0000  0.0000  0.0000  0.0000  0.0000  1.0000  0.0000  0.0000  0.0000      0.0000  0.0000  0.0000  0.0000  0.0000  0.0000  0.0000  0.0000  0.0000  0.0000
  o =  0.9926  v =  0.0000  0.0000  0.0000  0.0000  0.0000  0.0000  0.0000  1.0000  0.0000  0.0000      0.0000  0.0000  0.0000  0.0000  0.0000  0.0000  0.0000  0.0000  0.0000  0.0000
  o =  0.9926  v =  0.0000  0.0000  0.0000  0.0000  0.0000  0.0000  0.0000  0.0000  1.0000  0.0000      0.0000  0.0000  0.0000  0.0000  0.0000  0.0000  0.0000  0.0000  0.0000  0.0000
  o =  0.9926  v =  0.0000  0.0000  0.0000  0.0000  0.0000  0.0000  0.0000  0.0000  0.0000  1.0000      0.0000  0.0000  0.0000  0.0000  0.0000  0.0000  0.0000  0.0000  0.0000  0.0000
atom =  36  type =  2  l = 2
 
 onsite density matrix
 
spin component  1
 
  0.9926  0.0000  0.0000  0.0000  0.0000
  0.0000  0.9926  0.0000  0.0000  0.0000
  0.0000  0.0000  0.9926  0.0000  0.0000
  0.0000  0.0000  0.0000  0.9926  0.0000
  0.0000  0.0000  0.0000  0.0000  0.9926
 
spin component  2
 
  0.9926  0.0000  0.0000  0.0000  0.0000
  0.0000  0.9926  0.0000  0.0000  0.0000
  0.0000  0.0000  0.9926  0.0000  0.0000
  0.0000  0.0000  0.0000  0.9926  0.0000
  0.0000  0.0000  0.0000  0.0000  0.9926
 
 occupancies and eigenvectors
 
  o =  0.9926  v =  1.0000  0.0000  0.0000  0.0000  0.0000  0.0000  0.0000  0.0000  0.0000  0.0000      0.0000  0.0000  0.0000  0.0000  0.0000  0.0000  0.0000  0.0000  0.0000  0.0000
  o =  0.9926  v =  0.0000  1.0000  0.0000  0.0000  0.0000  0.0000  0.0000  0.0000  0.0000  0.0000      0.0000  0.0000  0.0000  0.0000  0.0000  0.0000  0.0000  0.0000  0.0000  0.0000
  o =  0.9926  v =  0.0000  0.0000  1.0000  0.0000  0.0000  0.0000  0.0000  0.0000  0.0000  0.0000      0.0000  0.0000  0.0000  0.0000  0.0000  0.0000  0.0000  0.0000  0.0000  0.0000
  o =  0.9926  v =  0.0000  0.0000  0.0000  1.0000  0.0000  0.0000  0.0000  0.0000  0.0000  0.0000      0.0000  0.0000  0.0000  0.0000  0.0000  0.0000  0.0000  0.0000  0.0000  0.0000
  o =  0.9926  v =  0.0000  0.0000  0.0000  0.0000  1.0000  0.0000  0.0000  0.0000  0.0000  0.0000      0.0000  0.0000  0.0000  0.0000  0.0000  0.0000  0.0000  0.0000  0.0000  0.0000
  o =  0.9926  v =  0.0000  0.0000  0.0000  0.0000  0.0000  1.0000  0.0000  0.0000  0.0000  0.0000      0.0000  0.0000  0.0000  0.0000  0.0000  0.0000  0.0000  0.0000  0.0000  0.0000
  o =  0.9926  v =  0.0000  0.0000  0.0000  0.0000  0.0000  0.0000  1.0000  0.0000  0.0000  0.0000      0.0000  0.0000  0.0000  0.0000  0.0000  0.0000  0.0000  0.0000  0.0000  0.0000
  o =  0.9926  v =  0.0000  0.0000  0.0000  0.0000  0.0000  0.0000  0.0000  1.0000  0.0000  0.0000      0.0000  0.0000  0.0000  0.0000  0.0000  0.0000  0.0000  0.0000  0.0000  0.0000
  o =  0.9926  v =  0.0000  0.0000  0.0000  0.0000  0.0000  0.0000  0.0000  0.0000  1.0000  0.0000      0.0000  0.0000  0.0000  0.0000  0.0000  0.0000  0.0000  0.0000  0.0000  0.0000
  o =  0.9926  v =  0.0000  0.0000  0.0000  0.0000  0.0000  0.0000  0.0000  0.0000  0.0000  1.0000      0.0000  0.0000  0.0000  0.0000  0.0000  0.0000  0.0000  0.0000  0.0000  0.0000
atom =  37  type =  2  l = 2
 
 onsite density matrix
 
spin component  1
 
  0.9926  0.0000  0.0000  0.0000  0.0000
  0.0000  0.9926  0.0000  0.0000  0.0000
  0.0000  0.0000  0.9926  0.0000  0.0000
  0.0000  0.0000  0.0000  0.9926  0.0000
  0.0000  0.0000  0.0000  0.0000  0.9926
 
spin component  2
 
  0.9926  0.0000  0.0000  0.0000  0.0000
  0.0000  0.9926  0.0000  0.0000  0.0000
  0.0000  0.0000  0.9926  0.0000  0.0000
  0.0000  0.0000  0.0000  0.9926  0.0000
  0.0000  0.0000  0.0000  0.0000  0.9926
 
 occupancies and eigenvectors
 
  o =  0.9926  v =  1.0000  0.0000  0.0000  0.0000  0.0000  0.0000  0.0000  0.0000  0.0000  0.0000      0.0000  0.0000  0.0000  0.0000  0.0000  0.0000  0.0000  0.0000  0.0000  0.0000
  o =  0.9926  v =  0.0000  1.0000  0.0000  0.0000  0.0000  0.0000  0.0000  0.0000  0.0000  0.0000      0.0000  0.0000  0.0000  0.0000  0.0000  0.0000  0.0000  0.0000  0.0000  0.0000
  o =  0.9926  v =  0.0000  0.0000  1.0000  0.0000  0.0000  0.0000  0.0000  0.0000  0.0000  0.0000      0.0000  0.0000  0.0000  0.0000  0.0000  0.0000  0.0000  0.0000  0.0000  0.0000
  o =  0.9926  v =  0.0000  0.0000  0.0000  1.0000  0.0000  0.0000  0.0000  0.0000  0.0000  0.0000      0.0000  0.0000  0.0000  0.0000  0.0000  0.0000  0.0000  0.0000  0.0000  0.0000
  o =  0.9926  v =  0.0000  0.0000  0.0000  0.0000  1.0000  0.0000  0.0000  0.0000  0.0000  0.0000      0.0000  0.0000  0.0000  0.0000  0.0000  0.0000  0.0000  0.0000  0.0000  0.0000
  o =  0.9926  v =  0.0000  0.0000  0.0000  0.0000  0.0000  1.0000  0.0000  0.0000  0.0000  0.0000      0.0000  0.0000  0.0000  0.0000  0.0000  0.0000  0.0000  0.0000  0.0000  0.0000
  o =  0.9926  v =  0.0000  0.0000  0.0000  0.0000  0.0000  0.0000  1.0000  0.0000  0.0000  0.0000      0.0000  0.0000  0.0000  0.0000  0.0000  0.0000  0.0000  0.0000  0.0000  0.0000
  o =  0.9926  v =  0.0000  0.0000  0.0000  0.0000  0.0000  0.0000  0.0000  1.0000  0.0000  0.0000      0.0000  0.0000  0.0000  0.0000  0.0000  0.0000  0.0000  0.0000  0.0000  0.0000
  o =  0.9926  v =  0.0000  0.0000  0.0000  0.0000  0.0000  0.0000  0.0000  0.0000  1.0000  0.0000      0.0000  0.0000  0.0000  0.0000  0.0000  0.0000  0.0000  0.0000  0.0000  0.0000
  o =  0.9926  v =  0.0000  0.0000  0.0000  0.0000  0.0000  0.0000  0.0000  0.0000  0.0000  1.0000      0.0000  0.0000  0.0000  0.0000  0.0000  0.0000  0.0000  0.0000  0.0000  0.0000
atom =  38  type =  2  l = 2
 
 onsite density matrix
 
spin component  1
 
  0.9926  0.0000  0.0000  0.0000  0.0000
  0.0000  0.9926  0.0000  0.0000  0.0000
  0.0000  0.0000  0.9926  0.0000  0.0000
  0.0000  0.0000  0.0000  0.9926  0.0000
  0.0000  0.0000  0.0000  0.0000  0.9926
 
spin component  2
 
  0.9926  0.0000  0.0000  0.0000  0.0000
  0.0000  0.9926  0.0000  0.0000  0.0000
  0.0000  0.0000  0.9926  0.0000  0.0000
  0.0000  0.0000  0.0000  0.9926  0.0000
  0.0000  0.0000  0.0000  0.0000  0.9926
 
 occupancies and eigenvectors
 
  o =  0.9926  v =  1.0000  0.0000  0.0000  0.0000  0.0000  0.0000  0.0000  0.0000  0.0000  0.0000      0.0000  0.0000  0.0000  0.0000  0.0000  0.0000  0.0000  0.0000  0.0000  0.0000
  o =  0.9926  v =  0.0000  1.0000  0.0000  0.0000  0.0000  0.0000  0.0000  0.0000  0.0000  0.0000      0.0000  0.0000  0.0000  0.0000  0.0000  0.0000  0.0000  0.0000  0.0000  0.0000
  o =  0.9926  v =  0.0000  0.0000  1.0000  0.0000  0.0000  0.0000  0.0000  0.0000  0.0000  0.0000      0.0000  0.0000  0.0000  0.0000  0.0000  0.0000  0.0000  0.0000  0.0000  0.0000
  o =  0.9926  v =  0.0000  0.0000  0.0000  1.0000  0.0000  0.0000  0.0000  0.0000  0.0000  0.0000      0.0000  0.0000  0.0000  0.0000  0.0000  0.0000  0.0000  0.0000  0.0000  0.0000
  o =  0.9926  v =  0.0000  0.0000  0.0000  0.0000  1.0000  0.0000  0.0000  0.0000  0.0000  0.0000      0.0000  0.0000  0.0000  0.0000  0.0000  0.0000  0.0000  0.0000  0.0000  0.0000
  o =  0.9926  v =  0.0000  0.0000  0.0000  0.0000  0.0000  1.0000  0.0000  0.0000  0.0000  0.0000      0.0000  0.0000  0.0000  0.0000  0.0000  0.0000  0.0000  0.0000  0.0000  0.0000
  o =  0.9926  v =  0.0000  0.0000  0.0000  0.0000  0.0000  0.0000  1.0000  0.0000  0.0000  0.0000      0.0000  0.0000  0.0000  0.0000  0.0000  0.0000  0.0000  0.0000  0.0000  0.0000
  o =  0.9926  v =  0.0000  0.0000  0.0000  0.0000  0.0000  0.0000  0.0000  1.0000  0.0000  0.0000      0.0000  0.0000  0.0000  0.0000  0.0000  0.0000  0.0000  0.0000  0.0000  0.0000
  o =  0.9926  v =  0.0000  0.0000  0.0000  0.0000  0.0000  0.0000  0.0000  0.0000  1.0000  0.0000      0.0000  0.0000  0.0000  0.0000  0.0000  0.0000  0.0000  0.0000  0.0000  0.0000
  o =  0.9926  v =  0.0000  0.0000  0.0000  0.0000  0.0000  0.0000  0.0000  0.0000  0.0000  1.0000      0.0000  0.0000  0.0000  0.0000  0.0000  0.0000  0.0000  0.0000  0.0000  0.0000
atom =  39  type =  2  l = 2
 
 onsite density matrix
 
spin component  1
 
  0.9926  0.0000  0.0000  0.0000  0.0000
  0.0000  0.9926  0.0000  0.0000  0.0000
  0.0000  0.0000  0.9926  0.0000  0.0000
  0.0000  0.0000  0.0000  0.9926  0.0000
  0.0000  0.0000  0.0000  0.0000  0.9926
 
spin component  2
 
  0.9926  0.0000  0.0000  0.0000  0.0000
  0.0000  0.9926  0.0000  0.0000  0.0000
  0.0000  0.0000  0.9926  0.0000  0.0000
  0.0000  0.0000  0.0000  0.9926  0.0000
  0.0000  0.0000  0.0000  0.0000  0.9926
 
 occupancies and eigenvectors
 
  o =  0.9926  v =  1.0000  0.0000  0.0000  0.0000  0.0000  0.0000  0.0000  0.0000  0.0000  0.0000      0.0000  0.0000  0.0000  0.0000  0.0000  0.0000  0.0000  0.0000  0.0000  0.0000
  o =  0.9926  v =  0.0000  1.0000  0.0000  0.0000  0.0000  0.0000  0.0000  0.0000  0.0000  0.0000      0.0000  0.0000  0.0000  0.0000  0.0000  0.0000  0.0000  0.0000  0.0000  0.0000
  o =  0.9926  v =  0.0000  0.0000  1.0000  0.0000  0.0000  0.0000  0.0000  0.0000  0.0000  0.0000      0.0000  0.0000  0.0000  0.0000  0.0000  0.0000  0.0000  0.0000  0.0000  0.0000
  o =  0.9926  v =  0.0000  0.0000  0.0000  1.0000  0.0000  0.0000  0.0000  0.0000  0.0000  0.0000      0.0000  0.0000  0.0000  0.0000  0.0000  0.0000  0.0000  0.0000  0.0000  0.0000
  o =  0.9926  v =  0.0000  0.0000  0.0000  0.0000  1.0000  0.0000  0.0000  0.0000  0.0000  0.0000      0.0000  0.0000  0.0000  0.0000  0.0000  0.0000  0.0000  0.0000  0.0000  0.0000
  o =  0.9926  v =  0.0000  0.0000  0.0000  0.0000  0.0000  1.0000  0.0000  0.0000  0.0000  0.0000      0.0000  0.0000  0.0000  0.0000  0.0000  0.0000  0.0000  0.0000  0.0000  0.0000
  o =  0.9926  v =  0.0000  0.0000  0.0000  0.0000  0.0000  0.0000  1.0000  0.0000  0.0000  0.0000      0.0000  0.0000  0.0000  0.0000  0.0000  0.0000  0.0000  0.0000  0.0000  0.0000
  o =  0.9926  v =  0.0000  0.0000  0.0000  0.0000  0.0000  0.0000  0.0000  1.0000  0.0000  0.0000      0.0000  0.0000  0.0000  0.0000  0.0000  0.0000  0.0000  0.0000  0.0000  0.0000
  o =  0.9926  v =  0.0000  0.0000  0.0000  0.0000  0.0000  0.0000  0.0000  0.0000  1.0000  0.0000      0.0000  0.0000  0.0000  0.0000  0.0000  0.0000  0.0000  0.0000  0.0000  0.0000
  o =  0.9926  v =  0.0000  0.0000  0.0000  0.0000  0.0000  0.0000  0.0000  0.0000  0.0000  1.0000      0.0000  0.0000  0.0000  0.0000  0.0000  0.0000  0.0000  0.0000  0.0000  0.0000
atom =  40  type =  2  l = 2
 
 onsite density matrix
 
spin component  1
 
  0.9926  0.0000  0.0000  0.0000  0.0000
  0.0000  0.9926  0.0000  0.0000  0.0000
  0.0000  0.0000  0.9926  0.0000  0.0000
  0.0000  0.0000  0.0000  0.9926  0.0000
  0.0000  0.0000  0.0000  0.0000  0.9926
 
spin component  2
 
  0.9926  0.0000  0.0000  0.0000  0.0000
  0.0000  0.9926  0.0000  0.0000  0.0000
  0.0000  0.0000  0.9926  0.0000  0.0000
  0.0000  0.0000  0.0000  0.9926  0.0000
  0.0000  0.0000  0.0000  0.0000  0.9926
 
 occupancies and eigenvectors
 
  o =  0.9926  v =  1.0000  0.0000  0.0000  0.0000  0.0000  0.0000  0.0000  0.0000  0.0000  0.0000      0.0000  0.0000  0.0000  0.0000  0.0000  0.0000  0.0000  0.0000  0.0000  0.0000
  o =  0.9926  v =  0.0000  1.0000  0.0000  0.0000  0.0000  0.0000  0.0000  0.0000  0.0000  0.0000      0.0000  0.0000  0.0000  0.0000  0.0000  0.0000  0.0000  0.0000  0.0000  0.0000
  o =  0.9926  v =  0.0000  0.0000  1.0000  0.0000  0.0000  0.0000  0.0000  0.0000  0.0000  0.0000      0.0000  0.0000  0.0000  0.0000  0.0000  0.0000  0.0000  0.0000  0.0000  0.0000
  o =  0.9926  v =  0.0000  0.0000  0.0000  1.0000  0.0000  0.0000  0.0000  0.0000  0.0000  0.0000      0.0000  0.0000  0.0000  0.0000  0.0000  0.0000  0.0000  0.0000  0.0000  0.0000
  o =  0.9926  v =  0.0000  0.0000  0.0000  0.0000  1.0000  0.0000  0.0000  0.0000  0.0000  0.0000      0.0000  0.0000  0.0000  0.0000  0.0000  0.0000  0.0000  0.0000  0.0000  0.0000
  o =  0.9926  v =  0.0000  0.0000  0.0000  0.0000  0.0000  1.0000  0.0000  0.0000  0.0000  0.0000      0.0000  0.0000  0.0000  0.0000  0.0000  0.0000  0.0000  0.0000  0.0000  0.0000
  o =  0.9926  v =  0.0000  0.0000  0.0000  0.0000  0.0000  0.0000  1.0000  0.0000  0.0000  0.0000      0.0000  0.0000  0.0000  0.0000  0.0000  0.0000  0.0000  0.0000  0.0000  0.0000
  o =  0.9926  v =  0.0000  0.0000  0.0000  0.0000  0.0000  0.0000  0.0000  1.0000  0.0000  0.0000      0.0000  0.0000  0.0000  0.0000  0.0000  0.0000  0.0000  0.0000  0.0000  0.0000
  o =  0.9926  v =  0.0000  0.0000  0.0000  0.0000  0.0000  0.0000  0.0000  0.0000  1.0000  0.0000      0.0000  0.0000  0.0000  0.0000  0.0000  0.0000  0.0000  0.0000  0.0000  0.0000
  o =  0.9926  v =  0.0000  0.0000  0.0000  0.0000  0.0000  0.0000  0.0000  0.0000  0.0000  1.0000      0.0000  0.0000  0.0000  0.0000  0.0000  0.0000  0.0000  0.0000  0.0000  0.0000
atom =  41  type =  2  l = 2
 
 onsite density matrix
 
spin component  1
 
  0.9926  0.0000  0.0000  0.0000  0.0000
  0.0000  0.9926  0.0000  0.0000  0.0000
  0.0000  0.0000  0.9926  0.0000  0.0000
  0.0000  0.0000  0.0000  0.9926  0.0000
  0.0000  0.0000  0.0000  0.0000  0.9926
 
spin component  2
 
  0.9926  0.0000  0.0000  0.0000  0.0000
  0.0000  0.9926  0.0000  0.0000  0.0000
  0.0000  0.0000  0.9926  0.0000  0.0000
  0.0000  0.0000  0.0000  0.9926  0.0000
  0.0000  0.0000  0.0000  0.0000  0.9926
 
 occupancies and eigenvectors
 
  o =  0.9926  v =  1.0000  0.0000  0.0000  0.0000  0.0000  0.0000  0.0000  0.0000  0.0000  0.0000      0.0000  0.0000  0.0000  0.0000  0.0000  0.0000  0.0000  0.0000  0.0000  0.0000
  o =  0.9926  v =  0.0000  1.0000  0.0000  0.0000  0.0000  0.0000  0.0000  0.0000  0.0000  0.0000      0.0000  0.0000  0.0000  0.0000  0.0000  0.0000  0.0000  0.0000  0.0000  0.0000
  o =  0.9926  v =  0.0000  0.0000  1.0000  0.0000  0.0000  0.0000  0.0000  0.0000  0.0000  0.0000      0.0000  0.0000  0.0000  0.0000  0.0000  0.0000  0.0000  0.0000  0.0000  0.0000
  o =  0.9926  v =  0.0000  0.0000  0.0000  1.0000  0.0000  0.0000  0.0000  0.0000  0.0000  0.0000      0.0000  0.0000  0.0000  0.0000  0.0000  0.0000  0.0000  0.0000  0.0000  0.0000
  o =  0.9926  v =  0.0000  0.0000  0.0000  0.0000  1.0000  0.0000  0.0000  0.0000  0.0000  0.0000      0.0000  0.0000  0.0000  0.0000  0.0000  0.0000  0.0000  0.0000  0.0000  0.0000
  o =  0.9926  v =  0.0000  0.0000  0.0000  0.0000  0.0000  1.0000  0.0000  0.0000  0.0000  0.0000      0.0000  0.0000  0.0000  0.0000  0.0000  0.0000  0.0000  0.0000  0.0000  0.0000
  o =  0.9926  v =  0.0000  0.0000  0.0000  0.0000  0.0000  0.0000  1.0000  0.0000  0.0000  0.0000      0.0000  0.0000  0.0000  0.0000  0.0000  0.0000  0.0000  0.0000  0.0000  0.0000
  o =  0.9926  v =  0.0000  0.0000  0.0000  0.0000  0.0000  0.0000  0.0000  1.0000  0.0000  0.0000      0.0000  0.0000  0.0000  0.0000  0.0000  0.0000  0.0000  0.0000  0.0000  0.0000
  o =  0.9926  v =  0.0000  0.0000  0.0000  0.0000  0.0000  0.0000  0.0000  0.0000  1.0000  0.0000      0.0000  0.0000  0.0000  0.0000  0.0000  0.0000  0.0000  0.0000  0.0000  0.0000
  o =  0.9926  v =  0.0000  0.0000  0.0000  0.0000  0.0000  0.0000  0.0000  0.0000  0.0000  1.0000      0.0000  0.0000  0.0000  0.0000  0.0000  0.0000  0.0000  0.0000  0.0000  0.0000
atom =  42  type =  2  l = 2
 
 onsite density matrix
 
spin component  1
 
  0.9926  0.0000  0.0000  0.0000  0.0000
  0.0000  0.9926  0.0000  0.0000  0.0000
  0.0000  0.0000  0.9926  0.0000  0.0000
  0.0000  0.0000  0.0000  0.9926  0.0000
  0.0000  0.0000  0.0000  0.0000  0.9926
 
spin component  2
 
  0.9926  0.0000  0.0000  0.0000  0.0000
  0.0000  0.9926  0.0000  0.0000  0.0000
  0.0000  0.0000  0.9926  0.0000  0.0000
  0.0000  0.0000  0.0000  0.9926  0.0000
  0.0000  0.0000  0.0000  0.0000  0.9926
 
 occupancies and eigenvectors
 
  o =  0.9926  v =  1.0000  0.0000  0.0000  0.0000  0.0000  0.0000  0.0000  0.0000  0.0000  0.0000      0.0000  0.0000  0.0000  0.0000  0.0000  0.0000  0.0000  0.0000  0.0000  0.0000
  o =  0.9926  v =  0.0000  1.0000  0.0000  0.0000  0.0000  0.0000  0.0000  0.0000  0.0000  0.0000      0.0000  0.0000  0.0000  0.0000  0.0000  0.0000  0.0000  0.0000  0.0000  0.0000
  o =  0.9926  v =  0.0000  0.0000  1.0000  0.0000  0.0000  0.0000  0.0000  0.0000  0.0000  0.0000      0.0000  0.0000  0.0000  0.0000  0.0000  0.0000  0.0000  0.0000  0.0000  0.0000
  o =  0.9926  v =  0.0000  0.0000  0.0000  1.0000  0.0000  0.0000  0.0000  0.0000  0.0000  0.0000      0.0000  0.0000  0.0000  0.0000  0.0000  0.0000  0.0000  0.0000  0.0000  0.0000
  o =  0.9926  v =  0.0000  0.0000  0.0000  0.0000  1.0000  0.0000  0.0000  0.0000  0.0000  0.0000      0.0000  0.0000  0.0000  0.0000  0.0000  0.0000  0.0000  0.0000  0.0000  0.0000
  o =  0.9926  v =  0.0000  0.0000  0.0000  0.0000  0.0000  1.0000  0.0000  0.0000  0.0000  0.0000      0.0000  0.0000  0.0000  0.0000  0.0000  0.0000  0.0000  0.0000  0.0000  0.0000
  o =  0.9926  v =  0.0000  0.0000  0.0000  0.0000  0.0000  0.0000  1.0000  0.0000  0.0000  0.0000      0.0000  0.0000  0.0000  0.0000  0.0000  0.0000  0.0000  0.0000  0.0000  0.0000
  o =  0.9926  v =  0.0000  0.0000  0.0000  0.0000  0.0000  0.0000  0.0000  1.0000  0.0000  0.0000      0.0000  0.0000  0.0000  0.0000  0.0000  0.0000  0.0000  0.0000  0.0000  0.0000
  o =  0.9926  v =  0.0000  0.0000  0.0000  0.0000  0.0000  0.0000  0.0000  0.0000  1.0000  0.0000      0.0000  0.0000  0.0000  0.0000  0.0000  0.0000  0.0000  0.0000  0.0000  0.0000
  o =  0.9926  v =  0.0000  0.0000  0.0000  0.0000  0.0000  0.0000  0.0000  0.0000  0.0000  1.0000      0.0000  0.0000  0.0000  0.0000  0.0000  0.0000  0.0000  0.0000  0.0000  0.0000
atom =  43  type =  2  l = 2
 
 onsite density matrix
 
spin component  1
 
  0.9926  0.0000  0.0000  0.0000  0.0000
  0.0000  0.9926  0.0000  0.0000  0.0000
  0.0000  0.0000  0.9926  0.0000  0.0000
  0.0000  0.0000  0.0000  0.9926  0.0000
  0.0000  0.0000  0.0000  0.0000  0.9926
 
spin component  2
 
  0.9926  0.0000  0.0000  0.0000  0.0000
  0.0000  0.9926  0.0000  0.0000  0.0000
  0.0000  0.0000  0.9926  0.0000  0.0000
  0.0000  0.0000  0.0000  0.9926  0.0000
  0.0000  0.0000  0.0000  0.0000  0.9926
 
 occupancies and eigenvectors
 
  o =  0.9926  v =  1.0000  0.0000  0.0000  0.0000  0.0000  0.0000  0.0000  0.0000  0.0000  0.0000      0.0000  0.0000  0.0000  0.0000  0.0000  0.0000  0.0000  0.0000  0.0000  0.0000
  o =  0.9926  v =  0.0000  1.0000  0.0000  0.0000  0.0000  0.0000  0.0000  0.0000  0.0000  0.0000      0.0000  0.0000  0.0000  0.0000  0.0000  0.0000  0.0000  0.0000  0.0000  0.0000
  o =  0.9926  v =  0.0000  0.0000  1.0000  0.0000  0.0000  0.0000  0.0000  0.0000  0.0000  0.0000      0.0000  0.0000  0.0000  0.0000  0.0000  0.0000  0.0000  0.0000  0.0000  0.0000
  o =  0.9926  v =  0.0000  0.0000  0.0000  1.0000  0.0000  0.0000  0.0000  0.0000  0.0000  0.0000      0.0000  0.0000  0.0000  0.0000  0.0000  0.0000  0.0000  0.0000  0.0000  0.0000
  o =  0.9926  v =  0.0000  0.0000  0.0000  0.0000  1.0000  0.0000  0.0000  0.0000  0.0000  0.0000      0.0000  0.0000  0.0000  0.0000  0.0000  0.0000  0.0000  0.0000  0.0000  0.0000
  o =  0.9926  v =  0.0000  0.0000  0.0000  0.0000  0.0000  1.0000  0.0000  0.0000  0.0000  0.0000      0.0000  0.0000  0.0000  0.0000  0.0000  0.0000  0.0000  0.0000  0.0000  0.0000
  o =  0.9926  v =  0.0000  0.0000  0.0000  0.0000  0.0000  0.0000  1.0000  0.0000  0.0000  0.0000      0.0000  0.0000  0.0000  0.0000  0.0000  0.0000  0.0000  0.0000  0.0000  0.0000
  o =  0.9926  v =  0.0000  0.0000  0.0000  0.0000  0.0000  0.0000  0.0000  1.0000  0.0000  0.0000      0.0000  0.0000  0.0000  0.0000  0.0000  0.0000  0.0000  0.0000  0.0000  0.0000
  o =  0.9926  v =  0.0000  0.0000  0.0000  0.0000  0.0000  0.0000  0.0000  0.0000  1.0000  0.0000      0.0000  0.0000  0.0000  0.0000  0.0000  0.0000  0.0000  0.0000  0.0000  0.0000
  o =  0.9926  v =  0.0000  0.0000  0.0000  0.0000  0.0000  0.0000  0.0000  0.0000  0.0000  1.0000      0.0000  0.0000  0.0000  0.0000  0.0000  0.0000  0.0000  0.0000  0.0000  0.0000
atom =  44  type =  2  l = 2
 
 onsite density matrix
 
spin component  1
 
  0.9926  0.0000  0.0000  0.0000  0.0000
  0.0000  0.9926  0.0000  0.0000  0.0000
  0.0000  0.0000  0.9926  0.0000  0.0000
  0.0000  0.0000  0.0000  0.9926  0.0000
  0.0000  0.0000  0.0000  0.0000  0.9926
 
spin component  2
 
  0.9926  0.0000  0.0000  0.0000  0.0000
  0.0000  0.9926  0.0000  0.0000  0.0000
  0.0000  0.0000  0.9926  0.0000  0.0000
  0.0000  0.0000  0.0000  0.9926  0.0000
  0.0000  0.0000  0.0000  0.0000  0.9926
 
 occupancies and eigenvectors
 
  o =  0.9926  v =  1.0000  0.0000  0.0000  0.0000  0.0000  0.0000  0.0000  0.0000  0.0000  0.0000      0.0000  0.0000  0.0000  0.0000  0.0000  0.0000  0.0000  0.0000  0.0000  0.0000
  o =  0.9926  v =  0.0000  1.0000  0.0000  0.0000  0.0000  0.0000  0.0000  0.0000  0.0000  0.0000      0.0000  0.0000  0.0000  0.0000  0.0000  0.0000  0.0000  0.0000  0.0000  0.0000
  o =  0.9926  v =  0.0000  0.0000  1.0000  0.0000  0.0000  0.0000  0.0000  0.0000  0.0000  0.0000      0.0000  0.0000  0.0000  0.0000  0.0000  0.0000  0.0000  0.0000  0.0000  0.0000
  o =  0.9926  v =  0.0000  0.0000  0.0000  1.0000  0.0000  0.0000  0.0000  0.0000  0.0000  0.0000      0.0000  0.0000  0.0000  0.0000  0.0000  0.0000  0.0000  0.0000  0.0000  0.0000
  o =  0.9926  v =  0.0000  0.0000  0.0000  0.0000  1.0000  0.0000  0.0000  0.0000  0.0000  0.0000      0.0000  0.0000  0.0000  0.0000  0.0000  0.0000  0.0000  0.0000  0.0000  0.0000
  o =  0.9926  v =  0.0000  0.0000  0.0000  0.0000  0.0000  1.0000  0.0000  0.0000  0.0000  0.0000      0.0000  0.0000  0.0000  0.0000  0.0000  0.0000  0.0000  0.0000  0.0000  0.0000
  o =  0.9926  v =  0.0000  0.0000  0.0000  0.0000  0.0000  0.0000  1.0000  0.0000  0.0000  0.0000      0.0000  0.0000  0.0000  0.0000  0.0000  0.0000  0.0000  0.0000  0.0000  0.0000
  o =  0.9926  v =  0.0000  0.0000  0.0000  0.0000  0.0000  0.0000  0.0000  1.0000  0.0000  0.0000      0.0000  0.0000  0.0000  0.0000  0.0000  0.0000  0.0000  0.0000  0.0000  0.0000
  o =  0.9926  v =  0.0000  0.0000  0.0000  0.0000  0.0000  0.0000  0.0000  0.0000  1.0000  0.0000      0.0000  0.0000  0.0000  0.0000  0.0000  0.0000  0.0000  0.0000  0.0000  0.0000
  o =  0.9926  v =  0.0000  0.0000  0.0000  0.0000  0.0000  0.0000  0.0000  0.0000  0.0000  1.0000      0.0000  0.0000  0.0000  0.0000  0.0000  0.0000  0.0000  0.0000  0.0000  0.0000
atom =  45  type =  2  l = 2
 
 onsite density matrix
 
spin component  1
 
  0.9926  0.0000  0.0000  0.0000  0.0000
  0.0000  0.9926  0.0000  0.0000  0.0000
  0.0000  0.0000  0.9926  0.0000  0.0000
  0.0000  0.0000  0.0000  0.9926  0.0000
  0.0000  0.0000  0.0000  0.0000  0.9926
 
spin component  2
 
  0.9926  0.0000  0.0000  0.0000  0.0000
  0.0000  0.9926  0.0000  0.0000  0.0000
  0.0000  0.0000  0.9926  0.0000  0.0000
  0.0000  0.0000  0.0000  0.9926  0.0000
  0.0000  0.0000  0.0000  0.0000  0.9926
 
 occupancies and eigenvectors
 
  o =  0.9926  v =  1.0000  0.0000  0.0000  0.0000  0.0000  0.0000  0.0000  0.0000  0.0000  0.0000      0.0000  0.0000  0.0000  0.0000  0.0000  0.0000  0.0000  0.0000  0.0000  0.0000
  o =  0.9926  v =  0.0000  1.0000  0.0000  0.0000  0.0000  0.0000  0.0000  0.0000  0.0000  0.0000      0.0000  0.0000  0.0000  0.0000  0.0000  0.0000  0.0000  0.0000  0.0000  0.0000
  o =  0.9926  v =  0.0000  0.0000  1.0000  0.0000  0.0000  0.0000  0.0000  0.0000  0.0000  0.0000      0.0000  0.0000  0.0000  0.0000  0.0000  0.0000  0.0000  0.0000  0.0000  0.0000
  o =  0.9926  v =  0.0000  0.0000  0.0000  1.0000  0.0000  0.0000  0.0000  0.0000  0.0000  0.0000      0.0000  0.0000  0.0000  0.0000  0.0000  0.0000  0.0000  0.0000  0.0000  0.0000
  o =  0.9926  v =  0.0000  0.0000  0.0000  0.0000  1.0000  0.0000  0.0000  0.0000  0.0000  0.0000      0.0000  0.0000  0.0000  0.0000  0.0000  0.0000  0.0000  0.0000  0.0000  0.0000
  o =  0.9926  v =  0.0000  0.0000  0.0000  0.0000  0.0000  1.0000  0.0000  0.0000  0.0000  0.0000      0.0000  0.0000  0.0000  0.0000  0.0000  0.0000  0.0000  0.0000  0.0000  0.0000
  o =  0.9926  v =  0.0000  0.0000  0.0000  0.0000  0.0000  0.0000  1.0000  0.0000  0.0000  0.0000      0.0000  0.0000  0.0000  0.0000  0.0000  0.0000  0.0000  0.0000  0.0000  0.0000
  o =  0.9926  v =  0.0000  0.0000  0.0000  0.0000  0.0000  0.0000  0.0000  1.0000  0.0000  0.0000      0.0000  0.0000  0.0000  0.0000  0.0000  0.0000  0.0000  0.0000  0.0000  0.0000
  o =  0.9926  v =  0.0000  0.0000  0.0000  0.0000  0.0000  0.0000  0.0000  0.0000  1.0000  0.0000      0.0000  0.0000  0.0000  0.0000  0.0000  0.0000  0.0000  0.0000  0.0000  0.0000
  o =  0.9926  v =  0.0000  0.0000  0.0000  0.0000  0.0000  0.0000  0.0000  0.0000  0.0000  1.0000      0.0000  0.0000  0.0000  0.0000  0.0000  0.0000  0.0000  0.0000  0.0000  0.0000
atom =  46  type =  2  l = 2
 
 onsite density matrix
 
spin component  1
 
  0.9926  0.0000  0.0000  0.0000  0.0000
  0.0000  0.9926  0.0000  0.0000  0.0000
  0.0000  0.0000  0.9926  0.0000  0.0000
  0.0000  0.0000  0.0000  0.9926  0.0000
  0.0000  0.0000  0.0000  0.0000  0.9926
 
spin component  2
 
  0.9926  0.0000  0.0000  0.0000  0.0000
  0.0000  0.9926  0.0000  0.0000  0.0000
  0.0000  0.0000  0.9926  0.0000  0.0000
  0.0000  0.0000  0.0000  0.9926  0.0000
  0.0000  0.0000  0.0000  0.0000  0.9926
 
 occupancies and eigenvectors
 
  o =  0.9926  v =  1.0000  0.0000  0.0000  0.0000  0.0000  0.0000  0.0000  0.0000  0.0000  0.0000      0.0000  0.0000  0.0000  0.0000  0.0000  0.0000  0.0000  0.0000  0.0000  0.0000
  o =  0.9926  v =  0.0000  1.0000  0.0000  0.0000  0.0000  0.0000  0.0000  0.0000  0.0000  0.0000      0.0000  0.0000  0.0000  0.0000  0.0000  0.0000  0.0000  0.0000  0.0000  0.0000
  o =  0.9926  v =  0.0000  0.0000  1.0000  0.0000  0.0000  0.0000  0.0000  0.0000  0.0000  0.0000      0.0000  0.0000  0.0000  0.0000  0.0000  0.0000  0.0000  0.0000  0.0000  0.0000
  o =  0.9926  v =  0.0000  0.0000  0.0000  1.0000  0.0000  0.0000  0.0000  0.0000  0.0000  0.0000      0.0000  0.0000  0.0000  0.0000  0.0000  0.0000  0.0000  0.0000  0.0000  0.0000
  o =  0.9926  v =  0.0000  0.0000  0.0000  0.0000  1.0000  0.0000  0.0000  0.0000  0.0000  0.0000      0.0000  0.0000  0.0000  0.0000  0.0000  0.0000  0.0000  0.0000  0.0000  0.0000
  o =  0.9926  v =  0.0000  0.0000  0.0000  0.0000  0.0000  1.0000  0.0000  0.0000  0.0000  0.0000      0.0000  0.0000  0.0000  0.0000  0.0000  0.0000  0.0000  0.0000  0.0000  0.0000
  o =  0.9926  v =  0.0000  0.0000  0.0000  0.0000  0.0000  0.0000  1.0000  0.0000  0.0000  0.0000      0.0000  0.0000  0.0000  0.0000  0.0000  0.0000  0.0000  0.0000  0.0000  0.0000
  o =  0.9926  v =  0.0000  0.0000  0.0000  0.0000  0.0000  0.0000  0.0000  1.0000  0.0000  0.0000      0.0000  0.0000  0.0000  0.0000  0.0000  0.0000  0.0000  0.0000  0.0000  0.0000
  o =  0.9926  v =  0.0000  0.0000  0.0000  0.0000  0.0000  0.0000  0.0000  0.0000  1.0000  0.0000      0.0000  0.0000  0.0000  0.0000  0.0000  0.0000  0.0000  0.0000  0.0000  0.0000
  o =  0.9926  v =  0.0000  0.0000  0.0000  0.0000  0.0000  0.0000  0.0000  0.0000  0.0000  1.0000      0.0000  0.0000  0.0000  0.0000  0.0000  0.0000  0.0000  0.0000  0.0000  0.0000
atom =  47  type =  2  l = 2
 
 onsite density matrix
 
spin component  1
 
  0.9926  0.0000  0.0000  0.0000  0.0000
  0.0000  0.9926  0.0000  0.0000  0.0000
  0.0000  0.0000  0.9926  0.0000  0.0000
  0.0000  0.0000  0.0000  0.9926  0.0000
  0.0000  0.0000  0.0000  0.0000  0.9926
 
spin component  2
 
  0.9926  0.0000  0.0000  0.0000  0.0000
  0.0000  0.9926  0.0000  0.0000  0.0000
  0.0000  0.0000  0.9926  0.0000  0.0000
  0.0000  0.0000  0.0000  0.9926  0.0000
  0.0000  0.0000  0.0000  0.0000  0.9926
 
 occupancies and eigenvectors
 
  o =  0.9926  v =  1.0000  0.0000  0.0000  0.0000  0.0000  0.0000  0.0000  0.0000  0.0000  0.0000      0.0000  0.0000  0.0000  0.0000  0.0000  0.0000  0.0000  0.0000  0.0000  0.0000
  o =  0.9926  v =  0.0000  1.0000  0.0000  0.0000  0.0000  0.0000  0.0000  0.0000  0.0000  0.0000      0.0000  0.0000  0.0000  0.0000  0.0000  0.0000  0.0000  0.0000  0.0000  0.0000
  o =  0.9926  v =  0.0000  0.0000  1.0000  0.0000  0.0000  0.0000  0.0000  0.0000  0.0000  0.0000      0.0000  0.0000  0.0000  0.0000  0.0000  0.0000  0.0000  0.0000  0.0000  0.0000
  o =  0.9926  v =  0.0000  0.0000  0.0000  1.0000  0.0000  0.0000  0.0000  0.0000  0.0000  0.0000      0.0000  0.0000  0.0000  0.0000  0.0000  0.0000  0.0000  0.0000  0.0000  0.0000
  o =  0.9926  v =  0.0000  0.0000  0.0000  0.0000  1.0000  0.0000  0.0000  0.0000  0.0000  0.0000      0.0000  0.0000  0.0000  0.0000  0.0000  0.0000  0.0000  0.0000  0.0000  0.0000
  o =  0.9926  v =  0.0000  0.0000  0.0000  0.0000  0.0000  1.0000  0.0000  0.0000  0.0000  0.0000      0.0000  0.0000  0.0000  0.0000  0.0000  0.0000  0.0000  0.0000  0.0000  0.0000
  o =  0.9926  v =  0.0000  0.0000  0.0000  0.0000  0.0000  0.0000  1.0000  0.0000  0.0000  0.0000      0.0000  0.0000  0.0000  0.0000  0.0000  0.0000  0.0000  0.0000  0.0000  0.0000
  o =  0.9926  v =  0.0000  0.0000  0.0000  0.0000  0.0000  0.0000  0.0000  1.0000  0.0000  0.0000      0.0000  0.0000  0.0000  0.0000  0.0000  0.0000  0.0000  0.0000  0.0000  0.0000
  o =  0.9926  v =  0.0000  0.0000  0.0000  0.0000  0.0000  0.0000  0.0000  0.0000  1.0000  0.0000      0.0000  0.0000  0.0000  0.0000  0.0000  0.0000  0.0000  0.0000  0.0000  0.0000
  o =  0.9926  v =  0.0000  0.0000  0.0000  0.0000  0.0000  0.0000  0.0000  0.0000  0.0000  1.0000      0.0000  0.0000  0.0000  0.0000  0.0000  0.0000  0.0000  0.0000  0.0000  0.0000
    EDDIAG:  cpu time   35.2796: real time   40.6478
  RMM-DIIS:  cpu time    5.1782: real time    6.3891
    ORTHCH:  cpu time    3.8364: real time    5.2085
       DOS:  cpu time    0.0060: real time    0.0065
    --------------------------------------------
      LOOP:  cpu time   44.8452: real time   53.1347

 eigenvalue-minimisations  :  1984
 total energy-change (2. order) : 0.8810839E+02  (-0.2311741E+05)
 number of electron     410.0000000 magnetization 
 augmentation part      410.0000000 magnetization 

 Free energy of the ion-electron system (eV)
  ---------------------------------------------------
  alpha Z        PSCENC =      1460.09211679
  Ewald energy   TEWEN  =    -33040.27663956
  -Hartree energ DENC   =    -10983.07431722
  -exchange      EXHF   =         0.00000000
  -V(xc)+E(xc)   XCENC  =      1793.97831468
  PAW double counting   =     35845.14641676   -36181.33068270
  entropy T*S    EENTRO =        -0.23687710
  eigenvalues    EBANDS =     -2498.82055466
  atomic energy  EATOM  =     43692.63060993
  Solvation  Ediel_sol  =         0.00000000
  ---------------------------------------------------
  free energy    TOTEN  =        88.10838692 eV

  energy without entropy =       88.34526402  energy(sigma->0) =       88.22682547


--------------------------------------------------------------------------------------------------------




----------------------------------------- Iteration    1(   2)  ---------------------------------------


    EDDIAG:  cpu time   42.1066: real time   42.6223
  RMM-DIIS:  cpu time    8.4727: real time    8.5186
    ORTHCH:  cpu time    5.5312: real time    5.5523
       DOS:  cpu time    0.0040: real time    0.0043
    --------------------------------------------
      LOOP:  cpu time   56.1435: real time   56.7706

 eigenvalue-minimisations  :  1984
 total energy-change (2. order) : 0.4087533E+03  (-0.4466392E+04)
 number of electron     410.0000000 magnetization 
 augmentation part      410.0000000 magnetization 

 Free energy of the ion-electron system (eV)
  ---------------------------------------------------
  alpha Z        PSCENC =      1460.09211679
  Ewald energy   TEWEN  =    -33040.27663956
  -Hartree energ DENC   =    -10983.07431722
  -exchange      EXHF   =         0.00000000
  -V(xc)+E(xc)   XCENC  =      1793.97831468
  PAW double counting   =     35845.14641676   -36181.33068270
  entropy T*S    EENTRO =        -0.05526967
  eigenvalues    EBANDS =     -2090.24890619
  atomic energy  EATOM  =     43692.63060993
  Solvation  Ediel_sol  =         0.00000000
  ---------------------------------------------------
  free energy    TOTEN  =       496.86164282 eV

  energy without entropy =      496.91691249  energy(sigma->0) =      496.88927765


--------------------------------------------------------------------------------------------------------




----------------------------------------- Iteration    1(   3)  ---------------------------------------


    EDDIAG:  cpu time   31.9031: real time   41.3264
  RMM-DIIS:  cpu time    5.1442: real time    6.9402
    ORTHCH:  cpu time    4.9223: real time    4.9400
       DOS:  cpu time    0.0050: real time    0.0047
    --------------------------------------------
      LOOP:  cpu time   42.0406: real time   53.2796

 eigenvalue-minimisations  :  1984
 total energy-change (2. order) :-0.6212748E+03  (-0.1247736E+04)
 number of electron     410.0000000 magnetization 
 augmentation part      410.0000000 magnetization 

 Free energy of the ion-electron system (eV)
  ---------------------------------------------------
  alpha Z        PSCENC =      1460.09211679
  Ewald energy   TEWEN  =    -33040.27663956
  -Hartree energ DENC   =    -10983.07431722
  -exchange      EXHF   =         0.00000000
  -V(xc)+E(xc)   XCENC  =      1793.97831468
  PAW double counting   =     35845.14641676   -36181.33068270
  entropy T*S    EENTRO =        -0.02812540
  eigenvalues    EBANDS =     -2711.55085288
  atomic energy  EATOM  =     43692.63060993
  Solvation  Ediel_sol  =         0.00000000
  ---------------------------------------------------
  free energy    TOTEN  =      -124.41315960 eV

  energy without entropy =     -124.38503421  energy(sigma->0) =     -124.39909690


--------------------------------------------------------------------------------------------------------




----------------------------------------- Iteration    1(   4)  ---------------------------------------


    EDDIAG:  cpu time   37.9562: real time   38.3281
  RMM-DIIS:  cpu time   19.1111: real time   19.1459
    ORTHCH:  cpu time    2.0727: real time    2.0741
       DOS:  cpu time    0.0040: real time    0.0045
    --------------------------------------------
      LOOP:  cpu time   59.1970: real time   59.6598

 eigenvalue-minimisations  :  4799
 total energy-change (2. order) :-0.1508977E+03  (-0.4913042E+03)
 number of electron     410.0000000 magnetization 
 augmentation part      410.0000000 magnetization 

 Free energy of the ion-electron system (eV)
  ---------------------------------------------------
  alpha Z        PSCENC =      1460.09211679
  Ewald energy   TEWEN  =    -33040.27663956
  -Hartree energ DENC   =    -10983.07431722
  -exchange      EXHF   =         0.00000000
  -V(xc)+E(xc)   XCENC  =      1793.97831468
  PAW double counting   =     35845.14641676   -36181.33068270
  entropy T*S    EENTRO =        -0.01377516
  eigenvalues    EBANDS =     -2862.46293415
  atomic energy  EATOM  =     43692.63060993
  Solvation  Ediel_sol  =         0.00000000
  ---------------------------------------------------
  free energy    TOTEN  =      -275.31089063 eV

  energy without entropy =     -275.29711548  energy(sigma->0) =     -275.30400305


--------------------------------------------------------------------------------------------------------




----------------------------------------- Iteration    1(   5)  ---------------------------------------


    EDDIAG:  cpu time    5.6851: real time    5.6903
  RMM-DIIS:  cpu time   23.6194: real time   23.6594
    ORTHCH:  cpu time    5.1752: real time    5.1781
       DOS:  cpu time    0.0020: real time    0.0022
    CHARGE:  cpu time    2.5156: real time    2.5174
    MIXING:  cpu time    0.1900: real time    0.1892
    --------------------------------------------
      LOOP:  cpu time   37.2443: real time   37.2953

 eigenvalue-minimisations  :  5037
 total energy-change (2. order) :-0.6858887E+02  (-0.6574116E+02)
 number of electron     409.9999605 magnetization 
 augmentation part      146.5206278 magnetization 

 Broyden mixing:
  rms(total) = 0.40482E+01    rms(broyden)= 0.40469E+01
  rms(prec ) = 0.53178E+01
  weight for this iteration     100.00

 Free energy of the ion-electron system (eV)
  ---------------------------------------------------
  alpha Z        PSCENC =      1460.09211679
  Ewald energy   TEWEN  =    -33040.27663956
  -Hartree energ DENC   =    -10983.07431722
  -exchange      EXHF   =         0.00000000
  -V(xc)+E(xc)   XCENC  =      1793.97831468
  PAW double counting   =     35845.14641676   -36181.33068270
  entropy T*S    EENTRO =         0.00000000
  eigenvalues    EBANDS =     -2931.06558165
[...]
    168       4.0683      2.00000
    169       4.1835      2.00000
    170       4.2220      2.00000
    171       4.2622      2.00000
    172       4.2932      2.00000
    173       4.3200      2.00000
    174       4.3567      2.00000
    175       4.3989      2.00000
    176       4.4560      2.00000
    177       4.5539      2.00000
    178       4.5731      2.00000
    179       4.5931      2.00000
    180       4.6157      2.00000
    181       4.7164      2.00000
    182       4.7285      2.00000
    183       4.7807      2.00000
    184       4.9288      2.00000
    185       4.9428      2.00000
    186       4.9594      2.00000
    187       4.9868      2.00000
    188       5.0717      2.00000
    189       5.1105      2.00000
    190       5.1523      2.00000
    191       5.1977      2.00000
    192       5.2078      2.00000
    193       5.2377      2.00000
    194       5.2719      2.00000
    195       5.2855      2.00000
    196       5.3206      2.00000
    197       5.3911      2.00000
    198       5.4316      2.00000
    199       5.4561      2.00000
    200       5.4894      2.00000
    201       5.5456      2.00000
    202       5.6259      2.00000
    203       5.6591      2.00000
    204       5.7891      2.00000
    205       7.3609      2.00000
    206       9.4497      0.00000
    207       9.7623      0.00000
    208      10.2502      0.00000
    209      10.9589      0.00000
    210      11.1578      0.00000
    211      11.3753      0.00000
    212      11.4483      0.00000
    213      11.6694      0.00000
    214      11.8389      0.00000
    215      12.0852      0.00000
    216      12.2464      0.00000
    217      12.5470      0.00000
    218      12.5894      0.00000
    219      12.7258      0.00000
    220      13.0458      0.00000
    221      13.4441      0.00000
    222      13.5227      0.00000
    223      13.9487      0.00000
    224      14.2632      0.00000
    225      14.3495      0.00000
    226      14.5331      0.00000
    227      14.5870      0.00000
    228      14.6166      0.00000
    229      14.7030      0.00000
    230      14.8537      0.00000
    231      14.9435      0.00000
    232      14.9776      0.00000
    233      15.0204      0.00000
    234      15.2093      0.00000
    235      15.3984      0.00000
    236      15.6024      0.00000
    237      15.6508      0.00000
    238      15.7143      0.00000
    239      15.7360      0.00000
    240      15.8405      0.00000
    241      15.9014      0.00000
    242      15.9351      0.00000
    243      16.0249      0.00000
    244      16.0509      0.00000
    245      16.3043      0.00000
    246      17.0096      0.00000
    247      17.3397      0.00000
    248      17.4366      0.00000


--------------------------------------------------------------------------------------------------------


 soft charge-density along one line, spin component           1
         0         1         2         3         4         5         6         7         8         9
 total charge-density along one line
 
 pseudopotential strength for first ion, spin component:           1
 11.828 -14.365  -0.005   0.000   0.007   0.007   0.000  -0.009
-14.365  17.461   0.007   0.000  -0.009  -0.009   0.000   0.011
 -0.005   0.007  -7.857  -0.005   0.056   9.313   0.007  -0.075
  0.000   0.000  -0.005  -7.891  -0.002   0.007   9.360   0.002
  0.007  -0.009   0.056  -0.002  -7.853  -0.075   0.002   9.308
  0.007  -0.009   9.313   0.007  -0.075 -10.854  -0.010   0.102
  0.000   0.000   0.007   9.360   0.002  -0.010 -10.917  -0.003
 -0.009   0.011  -0.075   0.002   9.308   0.102  -0.003 -10.847
 total augmentation occupancy for first ion, spin component:           1
  2.635   0.386   0.018  -0.002  -0.024   0.009   0.000  -0.010
  0.386   0.102   0.019   0.001  -0.024   0.007   0.001  -0.006
  0.018   0.019   2.138  -0.018  -0.018   0.246   0.001  -0.063
 -0.002   0.001  -0.018   2.101  -0.004   0.001   0.275   0.001
 -0.024  -0.024  -0.018  -0.004   2.153  -0.062   0.001   0.246
  0.009   0.007   0.246   0.001  -0.062   0.037   0.001  -0.018
  0.000   0.001   0.001   0.275   0.001   0.001   0.044   0.000
 -0.010  -0.006  -0.063   0.001   0.246  -0.018   0.000   0.037


------------------------ aborting loop because EDIFF is reached ----------------------------------------


    CHARGE:  cpu time    1.1378: real time    1.1387
    FORLOC:  cpu time    0.0380: real time    0.0381
    FORNL :  cpu time   19.6670: real time   19.6811
    STRESS:  cpu time   18.9031: real time   18.9201
    FORCOR:  cpu time    0.3809: real time    0.3826
    FORHAR:  cpu time    0.1650: real time    0.1651
    MIXING:  cpu time    0.1800: real time    0.1822
    OFIELD:  cpu time    0.0000: real time    0.0000

  FORCE on cell =-STRESS in cart. coord.  units (eV):
  Direction    XX          YY          ZZ          XY          YZ          ZX
  --------------------------------------------------------------------------------------
  Alpha Z  1460.09212  1460.09212  1460.09212
  Ewald  -12750.22281-12750.22281 -7573.18744  -350.95914     0.00000     0.00000
  Hartree  2784.65800  2784.65800  5701.74826  -201.60106     0.00000     0.00000
  E(xc)   -2088.11022 -2088.11022 -2082.90563    -0.40422     0.00000     0.00000
  Local    1605.31486  1605.31486 -6340.78438   544.89830     0.00000     0.00000
  n-local   121.58227   121.43032   202.78305    -3.37582     0.03863     0.01725
  augment  3170.62261  3170.62261  3142.71865     0.56812     0.00000     0.00000
  Kinetic  5697.31600  5697.60406  5489.51578     7.70625    -0.17756    -0.07629
  Fock        0.00000     0.00000     0.00000     0.00000     0.00000     0.00000
  -------------------------------------------------------------------------------------
  Total       1.32087     1.32087    -0.01960    -3.16792     0.00000     0.00000
  in kB       3.77243     3.77243    -0.05597    -9.04763     0.00000     0.00000
  external pressure =        2.50 kB  Pullay stress =        0.00 kB


 VOLUME and BASIS-vectors are now :
 -----------------------------------------------------------------------------
  energy-cutoff  :      480.00
  volume of cell :      560.98
      direct lattice vectors                 reciprocal lattice vectors
     9.432027167  0.000000000  0.000000000     0.106021747  0.000000000  0.000000000
     0.000000000  9.432027167  0.000000000     0.000000000  0.106021747  0.000000000
     0.000000000  0.000000000  6.305806843     0.000000000  0.000000000  0.158583989

  length of vectors
     9.432027167  9.432027167  6.305806843     0.106021747  0.106021747  0.158583989


 FORCES acting on ions
    electron-ion (+dipol)            ewald-force                    non-local-force                 convergence-correction
 -----------------------------------------------------------------------------------------------
   -.481E+02 -.603E+01 -.211E+02   0.511E+02 0.386E+01 0.209E+02   -.293E+01 0.221E+01 0.107E+00   -.303E-01 -.275E-01 -.935E-03
   0.476E+02 -.263E+02 -.112E+01   -.498E+02 0.287E+02 0.129E+01   0.221E+01 -.239E+01 -.160E+00   0.110E-01 0.285E-02 -.568E-02
   0.258E+02 -.330E+02 0.711E+00   -.282E+02 0.353E+02 -.106E+01   0.243E+01 -.236E+01 0.333E+00   -.133E-01 0.100E-01 0.115E-01
   0.407E+02 0.375E+02 -.632E-05   -.433E+02 -.400E+02 -.971E-16   0.265E+01 0.256E+01 0.000E+00   0.467E-02 -.493E-02 0.225E-11
   -.673E+02 -.166E+02 -.870E-05   0.703E+02 0.190E+02 0.180E-15   -.312E+01 -.236E+01 0.000E+00   0.188E-01 -.240E-01 -.493E-11
   -.603E+01 -.481E+02 0.211E+02   0.386E+01 0.511E+02 -.209E+02   0.221E+01 -.293E+01 -.107E+00   -.275E-01 -.303E-01 0.935E-03
   -.263E+02 0.476E+02 0.112E+01   0.287E+02 -.498E+02 -.129E+01   -.239E+01 0.221E+01 0.160E+00   0.285E-02 0.110E-01 0.568E-02
   0.410E+02 0.383E+02 0.662E-05   -.434E+02 -.410E+02 -.219E-13   0.242E+01 0.271E+01 0.000E+00   -.625E-03 -.495E-02 -.613E-11
   -.250E+02 -.544E+02 0.904E-05   0.274E+02 0.572E+02 0.140E-13   -.235E+01 -.280E+01 0.000E+00   -.370E-02 0.628E-02 0.904E-12
   -.544E+02 -.250E+02 0.904E-05   0.572E+02 0.274E+02 0.574E-13   -.280E+01 -.235E+01 0.000E+00   0.628E-02 -.370E-02 -.225E-11
   -.263E+02 0.476E+02 -.112E+01   0.287E+02 -.498E+02 0.129E+01   -.239E+01 0.221E+01 -.160E+00   0.285E-02 0.110E-01 -.568E-02
   0.387E+02 0.387E+02 -.842E-05   -.411E+02 -.411E+02 -.624E-13   0.236E+01 0.236E+01 0.000E+00   0.533E-02 0.533E-02 -.379E-12
   -.565E+02 -.565E+02 -.847E-05   0.592E+02 0.592E+02 0.487E-14   -.268E+01 -.268E+01 0.000E+00   0.425E-02 0.425E-02 0.106E-11
   0.258E+02 -.330E+02 -.711E+00   -.282E+02 0.353E+02 0.106E+01   0.243E+01 -.236E+01 -.333E+00   -.133E-01 0.100E-01 -.115E-01
   -.330E+02 0.258E+02 -.711E+00   0.353E+02 -.282E+02 0.106E+01   -.236E+01 0.243E+01 -.333E+00   0.100E-01 -.133E-01 -.115E-01
   0.427E+02 0.427E+02 0.362E-05   -.460E+02 -.460E+02 -.898E-14   0.330E+01 0.330E+01 0.000E+00   0.128E-01 0.128E-01 0.263E-11
   -.484E+02 -.484E+02 -.328E-05   0.504E+02 0.504E+02 0.177E-16   -.206E+01 -.206E+01 0.000E+00   -.885E-02 -.885E-02 -.737E-11
   -.603E+01 -.481E+02 -.211E+02   0.386E+01 0.511E+02 0.209E+02   0.221E+01 -.293E+01 0.107E+00   -.275E-01 -.303E-01 -.935E-03
   0.383E+02 0.410E+02 0.662E-05   -.410E+02 -.434E+02 0.130E-13   0.271E+01 0.242E+01 0.000E+00   -.495E-02 -.625E-03 -.423E-12
   -.330E+02 0.258E+02 0.711E+00   0.353E+02 -.282E+02 -.106E+01   -.236E+01 0.243E+01 0.333E+00   0.100E-01 -.133E-01 0.115E-01
   -.151E+02 -.151E+02 0.126E-04   0.168E+02 0.168E+02 -.171E-14   -.172E+01 -.172E+01 0.000E+00   -.297E-02 -.297E-02 0.169E-11
   -.481E+02 -.603E+01 0.211E+02   0.511E+02 0.386E+01 -.209E+02   -.293E+01 0.221E+01 -.107E+00   -.303E-01 -.275E-01 0.935E-03
   0.476E+02 -.263E+02 0.112E+01   -.498E+02 0.287E+02 -.129E+01   0.221E+01 -.239E+01 0.160E+00   0.110E-01 0.285E-02 0.568E-02
   -.166E+02 -.673E+02 -.870E-05   0.190E+02 0.703E+02 0.371E-15   -.236E+01 -.312E+01 0.000E+00   -.240E-01 0.188E-01 -.167E-11
   0.214E+02 0.214E+02 0.933E-05   -.225E+02 -.225E+02 -.601E-14   0.118E+01 0.118E+01 0.000E+00   -.723E-02 -.723E-02 0.104E-11
   0.375E+02 0.407E+02 -.632E-05   -.400E+02 -.433E+02 0.139E-14   0.256E+01 0.265E+01 0.000E+00   -.493E-02 0.467E-02 -.766E-12
   -.596E+02 0.858E+02 0.168E+02   0.629E+02 -.891E+02 -.167E+02   -.337E+01 0.321E+01 -.114E+00   0.896E-02 0.199E-01 0.309E-02
   0.858E+02 -.596E+02 -.168E+02   -.891E+02 0.629E+02 0.167E+02   0.321E+01 -.337E+01 0.114E+00   0.199E-01 0.896E-02 -.309E-02
   -.596E+02 0.858E+02 -.168E+02   0.629E+02 -.891E+02 0.167E+02   -.337E+01 0.321E+01 0.114E+00   0.896E-02 0.199E-01 -.309E-02
   0.910E+01 0.910E+01 -.913E-05   -.800E+01 -.800E+01 0.570E-13   -.113E+01 -.113E+01 0.000E+00   0.125E-01 0.125E-01 0.122E-11
   0.858E+02 -.596E+02 0.168E+02   -.891E+02 0.629E+02 -.167E+02   0.321E+01 -.337E+01 -.114E+00   0.199E-01 0.896E-02 0.309E-02
   0.351E+02 0.351E+02 -.365E-04   -.353E+02 -.353E+02 -.745E-13   0.181E+00 0.181E+00 0.000E+00   0.283E-01 0.283E-01 0.639E-11
   -.160E+02 -.160E+02 -.191E+01   0.158E+02 0.158E+02 0.188E+01   0.216E+00 0.216E+00 0.472E-01   0.500E-02 0.500E-02 -.347E-02
   0.112E+03 0.112E+03 0.166E+03   -.113E+03 -.113E+03 -.168E+03   0.113E+01 0.113E+01 0.170E+01   -.224E-01 -.224E-01 0.242E-01
   -.369E+02 -.369E+02 -.202E-05   0.375E+02 0.375E+02 -.269E-13   -.608E+00 -.608E+00 0.000E+00   -.213E-01 -.213E-01 -.334E-11
   -.160E+02 -.160E+02 0.191E+01   0.158E+02 0.158E+02 -.188E+01   0.216E+00 0.216E+00 -.472E-01   0.500E-02 0.500E-02 0.347E-02
   -.377E+02 0.373E+02 -.632E-05   0.377E+02 -.375E+02 -.290E-13   0.446E-01 0.223E+00 0.000E+00   -.577E-02 0.213E-01 -.469E-13
   0.112E+03 0.112E+03 -.166E+03   -.113E+03 -.113E+03 0.168E+03   0.113E+01 0.113E+01 -.170E+01   -.224E-01 -.224E-01 -.242E-01
   0.208E+02 -.251E+02 -.836E+01   -.204E+02 0.249E+02 0.838E+01   -.357E+00 0.203E+00 -.318E-01   -.214E-01 -.421E-02 0.518E-02
   -.251E+02 0.208E+02 -.836E+01   0.249E+02 -.204E+02 0.838E+01   0.203E+00 -.357E+00 -.318E-01   -.421E-02 -.214E-01 0.518E-02
   0.373E+02 -.377E+02 -.632E-05   -.375E+02 0.377E+02 -.619E-13   0.223E+00 0.446E-01 0.000E+00   0.213E-01 -.577E-02 0.870E-11
   -.418E+02 0.549E+02 0.142E-05   0.421E+02 -.552E+02 -.717E-13   -.225E+00 0.241E+00 0.000E+00   -.408E-02 0.235E-01 -.177E-11
   0.208E+02 -.251E+02 0.836E+01   -.204E+02 0.249E+02 -.838E+01   -.357E+00 0.203E+00 0.318E-01   -.214E-01 -.421E-02 -.518E-02
   -.251E+02 0.208E+02 0.836E+01   0.249E+02 -.204E+02 -.838E+01   0.203E+00 -.357E+00 0.318E-01   -.421E-02 -.214E-01 -.518E-02
   0.549E+02 -.418E+02 0.142E-05   -.552E+02 0.421E+02 -.450E-13   0.241E+00 -.225E+00 0.000E+00   0.235E-01 -.408E-02 -.602E-11
   0.328E+02 0.328E+02 0.256E-04   -.334E+02 -.334E+02 -.230E-13   0.605E+00 0.605E+00 0.000E+00   0.173E-01 0.173E-01 0.441E-11
   -.186E+03 -.186E+03 0.344E-04   0.186E+03 0.186E+03 -.297E-13   0.971E-01 0.971E-01 0.000E+00   -.283E-01 -.283E-01 0.237E-11
 -----------------------------------------------------------------------------------------------
   0.196E+00 0.196E+00 -.105E-03   0.568E-13 -.853E-13 -.229E-12   -.837E-01 -.837E-01 -.694E-17   -.846E-01 -.846E-01 0.427E-10
 
 
 POSITION                                       TOTAL-FORCE (eV/Angst)
 -----------------------------------------------------------------------------------
      0.93529      8.53003      4.73286         0.014257      0.017289     -0.005276
      3.80426      5.63484      4.72598        -0.007812     -0.012919      0.009160
      8.51236      5.63808      4.72675         0.006322      0.011874     -0.000707
      6.16210      1.44248      0.00000         0.002899     -0.014591      0.000000
      7.98968      3.27481      0.00000        -0.026284      0.020919      0.000000
      8.53003      0.93529      1.57294         0.017289      0.014257      0.005276
      5.63484      3.80426      1.57983        -0.012919     -0.007812     -0.009160
      6.16064      1.43818      3.15290         0.001161     -0.007580      0.000000
      3.27207      7.98875      3.15290         0.002882     -0.004591      0.000000
      7.98875      3.27207      3.15290        -0.004591      0.002882      0.000000
      5.63484      3.80426      4.72598        -0.012919     -0.007812      0.009160
      6.16559      6.16559      0.00000        -0.022623     -0.022623      0.000000
      8.00106      8.00106      0.00000        -0.011332     -0.011332      0.000000
      8.51236      5.63808      1.57905         0.006322      0.011874      0.000707
      5.63808      8.51236      1.57905         0.011874      0.006322      0.000707
      6.15638      6.15638      3.15290         0.013061      0.013061      0.000000
      7.99702      7.99702      3.15290        -0.001212     -0.001212      0.000000
      8.53003      0.93529      4.73286         0.017289      0.014257     -0.005276
      1.43818      6.16064      3.15290        -0.007580      0.001161      0.000000
      5.63808      8.51236      4.72675         0.011874      0.006322     -0.000707
      3.24688      3.24688      3.15290         0.003439      0.003439      0.000000
      0.93529      8.53003      1.57294         0.014257      0.017289      0.005276
      3.80426      5.63484      1.57983        -0.007812     -0.012919     -0.009160
      3.27481      7.98968      0.00000         0.020919     -0.026284      0.000000
      1.42567      1.42567      3.15290         0.010664      0.010664      0.000000
      1.44248      6.16210      0.00000        -0.014591      0.002899      0.000000
      0.89477      3.79939      1.56511        -0.004354     -0.019466     -0.000689
      3.79939      0.89477      4.74070        -0.019466     -0.004354      0.000689
      0.89477      3.79939      4.74070        -0.004354     -0.019466      0.000689
      3.28708      3.28708      0.00000        -0.010334     -0.010334      0.000000
      3.79939      0.89477      1.56511        -0.019466     -0.004354     -0.000689
      4.69771      4.69771      3.15290        -0.000017     -0.000017      0.000000
      7.07633      7.07633      4.72738         0.006117      0.006117      0.013491
      2.32870      2.32870      1.54481         0.018440      0.018440     -0.021604
     -0.00083     -0.00083      3.15290        -0.003656     -0.003656      0.000000
      7.07633      7.07633      1.57842         0.006117      0.006117     -0.013491
     -0.00496      4.71518      3.15290         0.000609     -0.001540      0.000000
      2.32870      2.32870      4.76100         0.018440      0.018440      0.021604
      2.36512      7.06928      4.72977         0.014088     -0.003663     -0.006935
      7.06928      2.36512      4.72977        -0.003663      0.014088     -0.006935
      4.71518     -0.00496      3.15290        -0.001540      0.000609      0.000000
     -0.01207      4.73289      0.00000         0.005224     -0.016504      0.000000
      2.36512      7.06928      1.57604         0.014088     -0.003663      0.006935
      7.06928      2.36512      1.57604        -0.003663      0.014088      0.006935
      4.73289     -0.01207      0.00000        -0.016504      0.005224      0.000000
      4.72790      4.72790      0.00000        -0.019220     -0.019220      0.000000
      0.02110      0.02110      0.00000        -0.001719     -0.001719      0.000000
 -----------------------------------------------------------------------------------
    total drift:                                0.028180      0.028180     -0.000105


--------------------------------------------------------------------------------------------------------



  FREE ENERGIE OF THE ION-ELECTRON SYSTEM (eV)
  ---------------------------------------------------
  free  energy   TOTEN  =      -305.40900571 eV

  energy  without entropy=     -305.40900571  energy(sigma->0) =     -305.40900571
 
 d Force = 0.1265734E-02[ 0.483E-03, 0.205E-02]  d Energy = 0.1339125E-02-0.734E-04
 d Force = 0.1420393E+01[ 0.140E+01, 0.144E+01]  d Ewald  = 0.1420383E+01 0.983E-05


--------------------------------------------------------------------------------------------------------


    POTLOK:  cpu time    0.5819: real time    0.5899


--------------------------------------------------------------------------------------------------------


 Conjugate gradient step on ions:
 trial-energy change:   -0.001339  1 .order   -0.001266   -0.002049   -0.000483
  (g-gl).g = 0.165E-02      g.g   = 0.196E-02  gl.gl    = 0.408E-02
 g(Force)  = 0.196E-02   g(Stress)= 0.000E+00 ortho     = 0.393E-04
 gamma     =   0.40388
 trial     =   1.03637
 opt step  =   1.35585  (harmonic =   1.35585) maximal distance =0.00368263
 next E    =  -305.409007   (d E  =  -0.00134)


--------------------------------------------------------------------------------------------------------


  
 reached required accuracy - stopping structural energy minimisation
 writing wavefunctions
     LOOP+:  cpu time  292.9045: real time  322.9777
    4ORBIT:  cpu time    0.0000: real time    0.0000

 total amount of memory used by VASP on root node    53050. kBytes
========================================================================

   base      :      30000. kBytes
   nonl-proj :       5182. kBytes
   fftplans  :       1450. kBytes
   grid      :       2326. kBytes
   one-center:         93. kBytes
   wavefun   :      13999. kBytes
 
  
  
 General timing and accounting informations for this job:
 ========================================================
  
                  Total CPU time used (sec):     3256.674
                            User time (sec):     3228.506
                          System time (sec):       28.168
                         Elapsed time (sec):     3523.778
  
                   Maximum memory used (kb):       63452.
                   Average memory used (kb):           0.
  
                          Minor page faults:         9860
                          Major page faults:            0
                 Voluntary context switches:         2043
